 Entering Gaussian System, Link 0=/opt/apps/apps/binapps/gaussian/g09d01_em64t/g09/g09
 Initial command:
 /opt/apps/apps/binapps/gaussian/g09d01_em64t/g09/l1.exe "/scratch/mbdxqjk2/Gaussian/gau_temp_2802427/Gau-10989.inp" -scrdir="/scratch/mbdxqjk2/Gaussian/gau_temp_2802427/"
 Entering Link 1 = /opt/apps/apps/binapps/gaussian/g09d01_em64t/g09/l1.exe PID=     10991.
  
 Copyright (c) 1988,1990,1992,1993,1995,1998,2003,2009,2013,
            Gaussian, Inc.  All Rights Reserved.
  
 This is part of the Gaussian(R) 09 program.  It is based on
 the Gaussian(R) 03 system (copyright 2003, Gaussian, Inc.),
 the Gaussian(R) 98 system (copyright 1998, Gaussian, Inc.),
 the Gaussian(R) 94 system (copyright 1995, Gaussian, Inc.),
 the Gaussian 92(TM) system (copyright 1992, Gaussian, Inc.),
 the Gaussian 90(TM) system (copyright 1990, Gaussian, Inc.),
 the Gaussian 88(TM) system (copyright 1988, Gaussian, Inc.),
 the Gaussian 86(TM) system (copyright 1986, Carnegie Mellon
 University), and the Gaussian 82(TM) system (copyright 1983,
 Carnegie Mellon University). Gaussian is a federally registered
 trademark of Gaussian, Inc.
  
 This software contains proprietary and confidential information,
 including trade secrets, belonging to Gaussian, Inc.
  
 This software is provided under written license and may be
 used, copied, transmitted, or stored only in accord with that
 written license.
  
 The following legend is applicable only to US Government
 contracts under FAR:
  
                    RESTRICTED RIGHTS LEGEND
  
 Use, reproduction and disclosure by the US Government is
 subject to restrictions as set forth in subparagraphs (a)
 and (c) of the Commercial Computer Software - Restricted
 Rights clause in FAR 52.227-19.
  
 Gaussian, Inc.
 340 Quinnipiac St., Bldg. 40, Wallingford CT 06492
  
  
 ---------------------------------------------------------------
 Warning -- This program may not be used in any manner that
 competes with the business of Gaussian, Inc. or will provide
 assistance to any competitor of Gaussian, Inc.  The licensee
 of this program is prohibited from giving any competitor of
 Gaussian, Inc. access to this program.  By using this program,
 the user acknowledges that Gaussian, Inc. is engaged in the
 business of creating and licensing software in the field of
 computational chemistry and represents and warrants to the
 licensee that it is not a competitor of Gaussian, Inc. and that
 it will not use this program in any manner prohibited above.
 ---------------------------------------------------------------
  

 Cite this work as:
 Gaussian 09, Revision D.01,
 M. J. Frisch, G. W. Trucks, H. B. Schlegel, G. E. Scuseria, 
 M. A. Robb, J. R. Cheeseman, G. Scalmani, V. Barone, B. Mennucci, 
 G. A. Petersson, H. Nakatsuji, M. Caricato, X. Li, H. P. Hratchian, 
 A. F. Izmaylov, J. Bloino, G. Zheng, J. L. Sonnenberg, M. Hada, 
 M. Ehara, K. Toyota, R. Fukuda, J. Hasegawa, M. Ishida, T. Nakajima, 
 Y. Honda, O. Kitao, H. Nakai, T. Vreven, J. A. Montgomery, Jr., 
 J. E. Peralta, F. Ogliaro, M. Bearpark, J. J. Heyd, E. Brothers, 
 K. N. Kudin, V. N. Staroverov, T. Keith, R. Kobayashi, J. Normand, 
 K. Raghavachari, A. Rendell, J. C. Burant, S. S. Iyengar, J. Tomasi, 
 M. Cossi, N. Rega, J. M. Millam, M. Klene, J. E. Knox, J. B. Cross, 
 V. Bakken, C. Adamo, J. Jaramillo, R. Gomperts, R. E. Stratmann, 
 O. Yazyev, A. J. Austin, R. Cammi, C. Pomelli, J. W. Ochterski, 
 R. L. Martin, K. Morokuma, V. G. Zakrzewski, G. A. Voth, 
 P. Salvador, J. J. Dannenberg, S. Dapprich, A. D. Daniels, 
 O. Farkas, J. B. Foresman, J. V. Ortiz, J. Cioslowski, 
 and D. J. Fox, Gaussian, Inc., Wallingford CT, 2013.
 
 ******************************************
 Gaussian 09:  ES64L-G09RevD.01 24-Apr-2013
                13-Aug-2021 
 ******************************************
 %nproc=4
 Will use up to    4 processors via shared memory.
 %chk=/mnt/iusers01/chem01/mbdxqjk2/sp_ss_tests/bph4/BC24H20_1.chk
 %mem=8GB
 ----------------------------------------------------------------------
 #p pbepbe empiricaldispersion=gd3 int=grid=ultrafine pop=(CHELPG, Atom
 Dipole) scf=(xqc,maxcycle=500) NoSymm
 ----------------------------------------------------------------------
 1/38=1/1;
 2/12=2,15=1,17=6,18=5,40=1/2;
 3/11=2,16=1,25=1,30=1,74=1009,75=-5,124=31/1,2,3;
 4//1;
 5/5=2,7=500,8=3,13=1,38=5/2,8;
 6/7=2,8=2,9=2,10=2,15=72,20=3,28=1/1,2;
 99/5=1,9=1/99;
 Leave Link    1 at Fri Aug 13 11:24:05 2021, MaxMem=  1073741824 cpu:         0.2
 (Enter /opt/apps/apps/binapps/gaussian/g09d01_em64t/g09/l101.exe)
 ----------
 DFT PBEPBE
 ----------
 Symbolic Z-matrix:
 Charge = -1 Multiplicity = 1
 H                     2.14867   15.32309   23.49847 
 H                     9.87746   18.00701   23.84798 
 H                     2.86816   15.50492   26.16667 
 H                     4.13052   12.11157   19.65712 
 H                     6.60342   16.09867   21.81559 
 H                     3.15417   20.00503   24.742 
 H                     4.47164   16.07046   21.30417 
 H                     6.5742    12.42795   27.35387 
 H                     0.32121   16.99576   23.54734 
 H                     8.74673   17.58427   26.02701 
 H                     2.84257   14.32796   28.33867 
 H                     4.26437   11.16464   21.9682 
 H                     8.75144   17.28418   21.73748 
 H                     4.97607   18.33117   24.63763 
 H                     4.58169   12.64597   23.90025 
 H                     4.7107    12.83618   28.97722 
 H                     4.23029   14.59056   19.35571 
 H                     6.57907   13.60337   25.16748 
 H                     0.82197   19.35955   24.16908 
 H                     6.54512   16.47009   26.08984 
 B                     4.85959   15.50016   24.05981 
 C                     5.75346   13.10122   27.09137 
 C                     3.71754   16.68289   24.04799 
 C                     5.75139   13.76647   25.86315 
 C                     2.93042   18.9755   24.45497 
 C                     4.50421   13.09189   22.9079 
 C                     8.26653   17.27463   25.0962 
 C                     7.04519   16.43664   22.75443 
 C                     4.32009   14.15612   20.35421 
 C                     4.7108    13.31419   27.9982 
 C                     1.34372   17.29377   23.79369 
 C                     2.37705   16.35593   23.75962 
 C                     1.61817   18.61791   24.14245 
 C                     8.27799   17.09506   22.70266 
 C                     3.68708   14.82337   26.40455 
 C                     3.66468   14.16387   27.63922 
 C                     4.47045   14.99026   21.46532 
 C                     6.36292   16.18577   23.96225 
 C                     3.9557    18.02419   24.39876 
 C                     4.59915   14.49232   22.78295 
 C                     8.90789   17.50716   23.87905 
 C                     7.02167   16.63967   25.12462 
 C                     4.32622   12.24314   21.81102 
 C                     4.2499    12.76868   20.51953 
 C                     4.73982   14.67332   25.482 
 
 NAtoms=     45 NQM=       45 NQMF=       0 NMMI=      0 NMMIF=      0
                NMic=       0 NMicF=      0.
                    Isotopes and Nuclear Properties:
 (Nuclear quadrupole moments (NQMom) in fm**2, nuclear magnetic moments (NMagM)
  in nuclear magnetons)

  Atom         1           2           3           4           5           6           7           8           9          10
 IAtWgt=           1           1           1           1           1           1           1           1           1           1
 AtmWgt=   1.0078250   1.0078250   1.0078250   1.0078250   1.0078250   1.0078250   1.0078250   1.0078250   1.0078250   1.0078250
 NucSpn=           1           1           1           1           1           1           1           1           1           1
 AtZEff=   0.0000000   0.0000000   0.0000000   0.0000000   0.0000000   0.0000000   0.0000000   0.0000000   0.0000000   0.0000000
 NQMom=    0.0000000   0.0000000   0.0000000   0.0000000   0.0000000   0.0000000   0.0000000   0.0000000   0.0000000   0.0000000
 NMagM=    2.7928460   2.7928460   2.7928460   2.7928460   2.7928460   2.7928460   2.7928460   2.7928460   2.7928460   2.7928460
 AtZNuc=   1.0000000   1.0000000   1.0000000   1.0000000   1.0000000   1.0000000   1.0000000   1.0000000   1.0000000   1.0000000

  Atom        11          12          13          14          15          16          17          18          19          20
 IAtWgt=           1           1           1           1           1           1           1           1           1           1
 AtmWgt=   1.0078250   1.0078250   1.0078250   1.0078250   1.0078250   1.0078250   1.0078250   1.0078250   1.0078250   1.0078250
 NucSpn=           1           1           1           1           1           1           1           1           1           1
 AtZEff=   0.0000000   0.0000000   0.0000000   0.0000000   0.0000000   0.0000000   0.0000000   0.0000000   0.0000000   0.0000000
 NQMom=    0.0000000   0.0000000   0.0000000   0.0000000   0.0000000   0.0000000   0.0000000   0.0000000   0.0000000   0.0000000
 NMagM=    2.7928460   2.7928460   2.7928460   2.7928460   2.7928460   2.7928460   2.7928460   2.7928460   2.7928460   2.7928460
 AtZNuc=   1.0000000   1.0000000   1.0000000   1.0000000   1.0000000   1.0000000   1.0000000   1.0000000   1.0000000   1.0000000

  Atom        21          22          23          24          25          26          27          28          29          30
 IAtWgt=          11          12          12          12          12          12          12          12          12          12
 AtmWgt=  11.0093053  12.0000000  12.0000000  12.0000000  12.0000000  12.0000000  12.0000000  12.0000000  12.0000000  12.0000000
 NucSpn=           3           0           0           0           0           0           0           0           0           0
 AtZEff=   0.0000000   0.0000000   0.0000000   0.0000000   0.0000000   0.0000000   0.0000000   0.0000000   0.0000000   0.0000000
 NQMom=    4.0590000   0.0000000   0.0000000   0.0000000   0.0000000   0.0000000   0.0000000   0.0000000   0.0000000   0.0000000
 NMagM=    2.6886370   0.0000000   0.0000000   0.0000000   0.0000000   0.0000000   0.0000000   0.0000000   0.0000000   0.0000000
 AtZNuc=   5.0000000   6.0000000   6.0000000   6.0000000   6.0000000   6.0000000   6.0000000   6.0000000   6.0000000   6.0000000

  Atom        31          32          33          34          35          36          37          38          39          40
 IAtWgt=          12          12          12          12          12          12          12          12          12          12
 AtmWgt=  12.0000000  12.0000000  12.0000000  12.0000000  12.0000000  12.0000000  12.0000000  12.0000000  12.0000000  12.0000000
 NucSpn=           0           0           0           0           0           0           0           0           0           0
 AtZEff=   0.0000000   0.0000000   0.0000000   0.0000000   0.0000000   0.0000000   0.0000000   0.0000000   0.0000000   0.0000000
 NQMom=    0.0000000   0.0000000   0.0000000   0.0000000   0.0000000   0.0000000   0.0000000   0.0000000   0.0000000   0.0000000
 NMagM=    0.0000000   0.0000000   0.0000000   0.0000000   0.0000000   0.0000000   0.0000000   0.0000000   0.0000000   0.0000000
 AtZNuc=   6.0000000   6.0000000   6.0000000   6.0000000   6.0000000   6.0000000   6.0000000   6.0000000   6.0000000   6.0000000

  Atom        41          42          43          44          45
 IAtWgt=          12          12          12          12          12
 AtmWgt=  12.0000000  12.0000000  12.0000000  12.0000000  12.0000000
 NucSpn=           0           0           0           0           0
 AtZEff=   0.0000000   0.0000000   0.0000000   0.0000000   0.0000000
 NQMom=    0.0000000   0.0000000   0.0000000   0.0000000   0.0000000
 NMagM=    0.0000000   0.0000000   0.0000000   0.0000000   0.0000000
 AtZNuc=   6.0000000   6.0000000   6.0000000   6.0000000   6.0000000
 Leave Link  101 at Fri Aug 13 11:24:05 2021, MaxMem=  1073741824 cpu:         0.3
 (Enter /opt/apps/apps/binapps/gaussian/g09d01_em64t/g09/l202.exe)
                          Input orientation:                          
 ---------------------------------------------------------------------
 Center     Atomic      Atomic             Coordinates (Angstroms)
 Number     Number       Type             X           Y           Z
 ---------------------------------------------------------------------
      1          1           0        2.148667   15.323086   23.498466
      2          1           0        9.877462   18.007006   23.847978
      3          1           0        2.868157   15.504921   26.166672
      4          1           0        4.130517   12.111571   19.657118
      5          1           0        6.603424   16.098667   21.815590
      6          1           0        3.154173   20.005030   24.741997
      7          1           0        4.471645   16.070461   21.304170
      8          1           0        6.574200   12.427947   27.353866
      9          1           0        0.321207   16.995759   23.547343
     10          1           0        8.746728   17.584273   26.027005
     11          1           0        2.842567   14.327955   28.338666
     12          1           0        4.264373   11.164640   21.968201
     13          1           0        8.751445   17.284182   21.737484
     14          1           0        4.976066   18.331168   24.637632
     15          1           0        4.581692   12.645968   23.900251
     16          1           0        4.710700   12.836184   28.977222
     17          1           0        4.230286   14.590556   19.355710
     18          1           0        6.579073   13.603369   25.167485
     19          1           0        0.821971   19.359551   24.169075
     20          1           0        6.545121   16.470089   26.089841
     21          5           0        4.859588   15.500164   24.059809
     22          6           0        5.753463   13.101221   27.091368
     23          6           0        3.717543   16.682894   24.047993
     24          6           0        5.751390   13.766472   25.863147
     25          6           0        2.930422   18.975497   24.454968
     26          6           0        4.504214   13.091889   22.907900
     27          6           0        8.266528   17.274633   25.096204
     28          6           0        7.045186   16.436643   22.754425
     29          6           0        4.320094   14.156124   20.354207
     30          6           0        4.710805   13.314193   27.998205
     31          6           0        1.343725   17.293775   23.793690
     32          6           0        2.377053   16.355934   23.759617
     33          6           0        1.618173   18.617912   24.142451
     34          6           0        8.277989   17.095060   22.702663
     35          6           0        3.687082   14.823374   26.404554
     36          6           0        3.664684   14.163870   27.639219
     37          6           0        4.470453   14.990258   21.465319
     38          6           0        6.362917   16.185773   23.962246
     39          6           0        3.955699   18.024186   24.398760
     40          6           0        4.599148   14.492317   22.782953
     41          6           0        8.907895   17.507161   23.879052
     42          6           0        7.021671   16.639669   25.124615
     43          6           0        4.326221   12.243141   21.811015
     44          6           0        4.249903   12.768681   20.519532
     45          6           0        4.739816   14.673321   25.482004
 ---------------------------------------------------------------------
                    Distance matrix (angstroms):
                    1          2          3          4          5
     1  H    0.000000
     2  H    8.189008   0.000000
     3  H    2.769486   7.795327   0.000000
     4  H    5.384934   9.238335   7.448669   0.000000
     5  H    4.824776   4.300196   5.765125   5.164417   0.000000
     6  H    4.947526   7.070642   4.728898   9.440123   5.976693
     7  H    3.281726   6.280448   5.151206   4.301390   2.192448
     8  H    6.544561   7.370800   4.961044   8.081560   6.644363
     9  H    2.477870   9.614313   3.945939   7.314369   6.577994
    10  H    7.418955   2.491068   6.237051   9.583075   4.953463
    11  H    4.989922   9.120934   2.470519   9.052097   7.734985
    12  H    4.910254   9.047558   6.197952   2.501141   5.462516
    13  H    7.109404   2.498915   7.576050   7.241326   2.454697
    14  H    4.282574   4.975170   3.843034   8.012731   3.949212
    15  H    3.639781   7.535824   4.030693   4.300386   4.511579
    16  H    6.539531   8.929836   4.291424   9.366217   8.094145
    17  H    4.693843   7.983934   7.005758   2.499233   3.735933
    18  H    5.037017   5.657958   4.287793   6.211685   4.178792
    19  H    4.301499   9.161572   4.799525   9.156279   7.042546
    20  H    5.230645   4.300297   3.802304   8.136763   4.290755
    21  B    2.774086   5.613216   2.899084   5.603374   2.904426
    22  C    5.553394   7.182874   3.867536   7.673425   6.127068
    23  C    2.147657   6.303799   2.568632   6.351954   3.695032
    24  C    4.581962   6.250400   3.380439   6.624253   4.748455
    25  C    3.855664   7.040439   3.870233   8.460087   5.360356
    26  C    3.297818   7.342609   4.372527   3.415884   3.826296
    27  C    6.617366   2.165536   5.781020   8.564313   3.861507
    28  C    5.076367   3.418140   5.473491   6.065876   1.091235
    29  C    3.995405   7.610523   6.141020   2.168425   3.335073
    30  C    5.554084   8.120420   3.398405   8.447294   7.039889
    31  C    2.149117   8.563663   3.339900   7.192543   5.745050
    32  C    1.089557   7.680494   2.599869   6.157901   4.659146
    33  C    3.398826   8.287085   3.917989   8.292319   6.050918
    34  C    6.429758   2.168342   6.617717   7.163242   2.140996
    35  C    3.325926   7.415686   1.091665   7.285493   5.584803
    36  C    4.559377   8.230542   2.145057   8.254870   6.803991
    37  C    3.104054   6.634273   4.993491   3.416428   2.429162
    38  C    4.326572   3.960047   4.187648   6.333787   2.161843
    39  C    3.372215   5.947347   3.264193   7.581078   4.170233
    40  C    2.684584   6.430234   3.933351   3.957071   2.744681
    41  C    7.113522   1.091270   6.761701   8.352272   3.398869
    42  C    5.303199   3.413935   4.430035   7.665244   3.378944
    43  C    4.132226   8.257581   5.633552   2.166768   4.477808
    44  C    4.451317   8.377829   6.425451   1.090781   4.278742
    45  C    3.327262   6.338683   2.159499   6.392426   4.352843
                    6          7          8          9         10
     6  H    0.000000
     7  H    5.388434   0.000000
     8  H    8.713819   7.368003   0.000000
     9  H    4.302163   4.807716   8.628700   0.000000
    10  H    6.228000   6.547758   5.750490   8.802527   0.000000
    11  H    6.727727   7.427944   4.301738   6.035828   7.127868
    12  H    9.331612   4.954894   5.994717   7.214167   8.819132
    13  H    6.910829   4.469627   7.737387   8.627148   4.300008
    14  H    2.476287   4.059212   6.691785   4.963845   4.087310
    15  H    7.543351   4.298709   3.993129   6.098932   6.801284
    16  H    8.470670   8.330271   2.504910   8.127319   6.894755
    17  H    7.712757   2.458631   8.610535   6.215761   8.594578
    18  H    7.272705   5.045096   2.482319   7.300278   4.613578
    19  H    2.486775   5.687347   9.553961   2.494961   8.330984
    20  H    5.080454   5.230836   4.235272   6.743719   2.468284
    21  B    4.864939   2.840649   4.819671   4.805864   4.829413
    22  C    7.741992   6.629563   1.093532   7.565511   5.494566
    23  C    3.440293   2.910723   6.098677   3.447265   5.479204
    24  C    6.849972   5.265965   2.165851   6.728903   4.855358
    25  C    1.091965   4.554353   8.034373   3.398698   6.183545
    26  C    7.278601   3.383031   4.948967   5.757312   6.921651
    27  C    5.806609   5.498244   5.608153   8.099684   1.092181
    28  C    5.641260   2.976650   6.119341   6.793617   3.862911
    29  C    7.404173   2.142448   7.553994   5.852414   7.970441
    30  C    7.602190   7.243225   2.161677   7.254838   6.197410
    31  C    3.395278   4.180680   7.981793   1.093180   7.737994
    32  C    3.858094   3.240066   6.779657   2.163548   6.871872
    33  C    2.154727   4.763155   8.555177   2.160476   7.445552
    34  C    6.235407   4.182564   6.805773   8.002108   3.392683
    35  C    5.467874   5.308925   3.869718   4.920572   5.776255
    36  C    6.540158   6.664767   3.400020   5.995155   6.334474
    37  C    6.133282   1.092158   6.757676   5.056986   6.769374
    38  C    5.048839   3.264288   5.066457   6.109868   3.449868
    39  C    2.164254   3.695907   6.848876   3.871964   5.079239
    40  C    6.026260   2.166470   5.390334   5.015207   6.106266
    41  C    6.331614   5.326766   6.581708   8.608297   2.155371
    42  C    5.140971   4.628437   4.786272   6.892809   2.163887
    43  C    8.379216   3.863472   5.984210   6.453088   8.114379
    44  C    8.449532   3.400967   7.226796   6.516939   8.587411
    45  C    5.611506   4.413412   3.451165   5.353573   4.982571
                   11         12         13         14         15
    11  H    0.000000
    12  H    7.253338   0.000000
    13  H    9.339685   7.591827   0.000000
    14  H    5.854501   7.680592   4.874476   0.000000
    15  H    5.055014   2.455166   6.601320   5.746369   0.000000
    16  H    2.474481   7.219394   9.408831   7.006947   5.082171
    17  H    9.093306   4.308500   5.776621   6.515140   4.955579
    18  H    4.954078   4.641191   5.480190   5.020204   2.551868
    19  H    6.839974   9.156994   8.549640   4.305069   7.699349
    20  H    4.832687   7.094894   4.947081   2.834512   4.824237
    21  B    4.873506   4.850348   4.870571   2.891717   2.872129
    22  C    3.396166   5.675789   7.426246   5.829024   3.429801
    23  C    4.972041   5.922473   5.571370   2.156006   4.131024
    24  C    3.860662   4.914403   6.196427   4.789516   2.544934
    25  C    6.057266   8.304994   6.643009   2.152484   6.564857
    26  C    5.812241   2.157510   6.081460   5.537567   1.090692
    27  C    6.972505   7.945669   3.393557   3.486216   6.035964
    28  C    7.300159   6.012078   2.159585   3.378898   4.663790
    29  C    8.121835   3.399568   5.597774   6.017393   3.863086
    30  C    2.152659   6.417229   8.442997   6.044324   4.154085
    31  C    5.630224   7.030568   7.687808   3.870701   5.665501
    32  C    5.029621   5.806951   6.751558   3.380433   4.317877
    33  C    6.124629   8.202500   7.645015   3.406298   6.671224
    34  C    8.304530   7.198502   1.091557   4.021786   5.906882
    35  C    2.167818   5.779345   7.313336   4.133777   3.436999
    36  C    1.091800   6.443248   8.392971   5.300530   4.138214
    37  C    7.094474   3.864028   4.864469   4.634748   3.381858
    38  C    5.915860   5.795850   3.443999   2.642389   3.963184
    39  C    5.515799   7.283974   5.534363   1.091992   5.437427
    40  C    5.829112   3.442285   5.111661   4.280032   2.158163
    41  C    8.172130   8.089575   2.158821   4.088240   6.507509
    42  C    5.756653   6.895041   3.857482   2.698670   4.837584
    43  C    7.011270   1.091649   6.708212   6.743599   2.142998
    44  C    8.096345   2.161435   6.491304   6.958974   3.399177
    45  C    3.446643   4.988356   6.077103   3.761465   2.576258
                   16         17         18         19         20
    16  H    0.000000
    17  H    9.791941   0.000000
    18  H    4.312017   6.345712   0.000000
    19  H    8.988593   7.584748   8.202114   0.000000
    20  H    4.990726   7.364755   3.011640   6.692741   0.000000
    21  B    5.594632   4.832386   2.789517   5.586515   2.811193
    22  C    2.171185   8.023627   2.152931   8.486820   3.602646
    23  C    6.330943   5.163168   4.350297   3.945059   3.494228
    24  C    3.412614   6.733469   1.093438   7.645363   2.826826
    25  C    7.830156   6.849802   6.533000   2.162127   4.692114
    26  C    6.078215   3.865112   3.110044   7.377876   5.069742
    27  C    6.885205   7.513241   4.041134   7.786391   2.144259
    28  C    7.558858   4.783614   3.750674   7.019475   3.372859
    29  C    8.732194   1.092608   5.345668   7.339328   6.572874
    30  C    1.089480   8.749441   3.403972   8.144422   4.119011
    31  C    7.620738   5.944349   6.550975   2.163463   5.745023
    32  C    6.712522   5.093665   5.216864   3.407000   4.776585
    33  C    8.146601   6.779057   7.127893   1.088428   5.716667
    34  C    8.380553   5.818809   4.599301   7.929091   3.855696
    35  C    3.408128   7.073576   3.373776   5.812325   3.313474
    36  C    2.155725   8.313752   3.862291   6.864256   4.002017
    37  C    7.818340   2.160530   4.480599   6.301781   5.280185
    38  C    6.252963   5.320997   2.857994   6.388875   2.154226
    39  C    6.960439   6.107173   5.197754   3.414118   3.461225
    40  C    6.412815   3.448434   3.224333   6.314932   4.316701
    41  C    8.088622   7.130724   4.724729   8.300459   3.397911
    42  C    5.886397   6.728370   3.068688   6.837184   1.089732
    43  C    7.200976   3.398247   4.265144   8.275476   6.410847
    44  C    8.470503   2.161966   5.265473   8.277044   7.070841
    45  C    3.948730   6.148003   2.150949   6.247723   2.618582
                   21         22         23         24         25
    21  B    0.000000
    22  C    3.967908   0.000000
    23  C    1.644158   5.122059   0.000000
    24  C    2.655754   1.396815   3.992097   0.000000
    25  C    3.994468   7.030455   2.457889   6.088906   0.000000
    26  C    2.693134   4.366018   3.848893   3.277804   6.283875
    27  C    3.978705   5.264366   4.705547   4.384212   5.637212
    28  C    2.712538   5.621625   3.578711   4.297426   5.125321
    29  C    3.978566   6.968265   4.515716   5.705161   6.478718
    30  C    4.506836   1.398158   5.285725   2.417818   6.911921
    31  C    3.955901   6.920837   2.464317   6.012656   2.404805
    32  C    2.642998   5.752727   1.409601   4.745135   2.766196
    33  C    4.498216   7.498708   2.856671   6.601571   1.395539
    34  C    4.008866   6.448622   4.772575   5.239453   5.933220
    35  C    2.707516   2.776231   3.002019   2.381498   4.649037
    36  C    4.003205   2.406733   4.386933   2.768880   5.816387
    37  C    2.672604   6.071821   3.178380   4.741239   5.214579
    38  C    1.655167   4.435911   2.693044   3.136942   4.450546
    39  C    2.702331   5.892171   1.406706   4.847377   1.399766
    40  C    1.647406   4.672263   2.678840   3.367805   5.067464
    41  C    4.522112   6.299343   5.258109   5.281374   6.182061
    42  C    2.665875   4.242298   3.475377   3.227120   4.758449
    43  C    3.993714   5.536737   5.008589   4.557568   7.366367
    44  C    4.512901   6.749838   5.296651   5.639528   7.466811
    45  C    1.649440   2.467597   2.672043   1.411002   4.778853
                   26         27         28         29         30
    26  C    0.000000
    27  C    6.036474   0.000000
    28  C    4.203269   2.770890   0.000000
    29  C    2.772696   6.912740   4.288116   0.000000
    30  C    5.099343   6.062167   6.534237   7.700143   0.000000
    31  C    5.331900   7.044297   5.858448   5.525728   6.697182
    32  C    3.988010   6.108715   4.775813   4.495708   5.715261
    33  C    6.355334   6.849428   6.011408   6.446606   7.249871
    34  C    5.505350   2.400295   1.398569   5.460542   7.420413
    35  C    3.986519   5.356471   5.215644   6.119855   2.421850
    36  C    4.923345   6.109071   6.360385   7.314439   1.394701
    37  C    2.384530   5.728166   3.222278   1.397482   6.748745
    38  C    3.760125   2.468848   1.409702   4.616335   5.221533
    39  C    5.181803   4.430746   3.843054   5.608306   5.975803
    40  C    1.409192   5.151901   3.124791   2.467732   5.347831
    41  C    6.311114   1.395306   2.424969   6.685947   7.222463
    42  C    4.882434   1.397732   2.378986   6.018580   4.965522
    43  C    1.398289   7.185708   5.086084   2.404544   6.290976
    44  C    2.423519   7.575144   5.124676   1.399020   7.512694
    45  C    3.030255   4.399246   3.982929   5.170876   2.859954
                   31         32         33         34         35
    31  C    0.000000
    32  C    1.395877   0.000000
    33  C    1.396530   2.416403   0.000000
    34  C    7.022382   6.040241   6.981778   0.000000
    35  C    4.290783   3.325749   4.878115   6.319888   0.000000
    36  C    5.474601   4.638367   6.021136   7.365056   1.399944
    37  C    4.528127   3.392816   5.335018   4.523113   5.003755
    38  C    5.142798   3.994637   5.334826   2.465939   3.870542
    39  C    2.778852   2.384050   2.425331   4.735210   3.786893
    40  C    4.412203   3.060171   5.268300   4.507171   3.749328
    41  C    7.567661   6.632608   7.378563   1.396603   6.390443
    42  C    5.868415   4.849351   5.837455   2.766147   4.007076
    43  C    6.191541   4.950896   7.307997   6.320809   5.307231
    44  C    6.296226   5.184024   7.366482   6.301515   6.258756
    45  C    4.609839   3.373493   5.205656   5.109621   1.407787
                   36         37         38         39         40
    36  C    0.000000
    37  C    6.280862   0.000000
    38  C    4.988856   3.353405   0.000000
    39  C    5.048495   4.251444   3.060230   0.000000
    40  C    4.956251   1.414449   2.714665   3.936872   0.000000
    41  C    7.266892   5.643740   2.868780   5.006162   5.371779
    42  C    4.870542   4.756020   1.411056   3.441502   3.995388
    43  C    6.172098   2.772536   4.931559   6.344619   2.465349
    44  C    7.278666   2.424574   5.290901   6.538754   2.866351
    45  C    2.463539   4.038163   2.689169   3.607846   2.708768
                   41         42         43         44         45
    41  C    0.000000
    42  C    2.421118   0.000000
    43  C    7.278628   6.129834   0.000000
    44  C    7.445566   6.623748   1.396405   0.000000
    45  C    5.288949   3.033334   4.421877   5.337958   0.000000
 Symmetry turned off by external request.
 Stoichiometry    C24H20B(1-)
 Framework group  C1[X(C24H20B)]
 Deg. of freedom   129
 Full point group                 C1      NOp   1
 Rotational constants (GHZ):      0.2097165      0.2038248      0.2009590
 Leave Link  202 at Fri Aug 13 11:24:05 2021, MaxMem=  1073741824 cpu:         0.0
 (Enter /opt/apps/apps/binapps/gaussian/g09d01_em64t/g09/l301.exe)
 Standard basis: STO-3G (5D, 7F)
 Ernie: Thresh=  0.10000D-02 Tol=  0.10000D-05 Strict=F.
   145 basis functions,   435 primitive gaussians,   145 cartesian basis functions
    85 alpha electrons       85 beta electrons
       nuclear repulsion energy      1972.5541176946 Hartrees.
 IExCor= 1009 DFT=T Ex=PBE Corr=PBE ExCW=0 ScaHFX=  0.000000
 ScaDFX=  1.000000  1.000000  1.000000  1.000000 ScalE2=  1.000000  1.000000
 IRadAn=      5 IRanWt=     -1 IRanGd=            0 ICorTp=0 IEmpDi=131
 NAtoms=   45 NActive=   45 NUniq=   45 SFac= 1.00D+00 NAtFMM=   60 NAOKFM=F Big=F
 Integral buffers will be    131072 words long.
 Raffenetti 2 integral format.
 Two-electron integral symmetry is turned off.
 R6Disp:  Grimme-D3 Dispersion energy=       -0.0313389069 Hartrees.
 Nuclear repulsion after empirical dispersion term =     1972.5227787877 Hartrees.
 Leave Link  301 at Fri Aug 13 11:24:05 2021, MaxMem=  1073741824 cpu:         0.3
 (Enter /opt/apps/apps/binapps/gaussian/g09d01_em64t/g09/l302.exe)
 NPDir=0 NMtPBC=     1 NCelOv=     1 NCel=       1 NClECP=     1 NCelD=      1
         NCelK=      1 NCelE2=     1 NClLst=     1 CellRange=     0.0.
 One-electron integrals computed using PRISM.
 NBasis=   145 RedAO= T EigKep=  1.74D-01  NBF=   145
 NBsUse=   145 1.00D-06 EigRej= -1.00D+00 NBFU=   145
 Precomputing XC quadrature grid using
 IXCGrd= 4 IRadAn=           5 IRanWt=          -1 IRanGd=           0 AccXCQ= 0.00D+00.
 Generated NRdTot=       0 NPtTot=           0 NUsed=           0 NTot=          32
 NSgBfM=   144   144   144   144   144 MxSgAt=    45 MxSgA2=    45.
 Leave Link  302 at Fri Aug 13 11:24:06 2021, MaxMem=  1073741824 cpu:         4.3
 (Enter /opt/apps/apps/binapps/gaussian/g09d01_em64t/g09/l303.exe)
 DipDrv:  MaxL=1.
 Leave Link  303 at Fri Aug 13 11:24:07 2021, MaxMem=  1073741824 cpu:         0.2
 (Enter /opt/apps/apps/binapps/gaussian/g09d01_em64t/g09/l401.exe)
 ExpMin= 1.69D-01 ExpMax= 7.16D+01 ExpMxC= 7.16D+01 IAcc=3 IRadAn=         5 AccDes= 0.00D+00
 Harris functional with IExCor= 1009 and IRadAn=       5 diagonalized for initial guess.
 HarFok:  IExCor= 1009 AccDes= 0.00D+00 IRadAn=         5 IDoV= 1 UseB2=F ITyADJ=14
 ICtDFT=  3500011 ScaDFX=  1.000000  1.000000  1.000000  1.000000
 FoFCou: FMM=F IPFlag=           0 FMFlag=      100000 FMFlg1=           0
         NFxFlg=           0 DoJE=T BraDBF=F KetDBF=T FulRan=T
         wScrn=  0.000000 ICntrl=     500 IOpCl=  0 I1Cent=   200000004 NGrid=           0
         NMat0=    1 NMatS0=      1 NMatT0=    0 NMatD0=    1 NMtDS0=    0 NMtDT0=    0
 Symmetry not used in FoFCou.
 Harris En= -939.096836496009    
 JPrj=0 DoOrth=F DoCkMO=F.
 Leave Link  401 at Fri Aug 13 11:24:11 2021, MaxMem=  1073741824 cpu:        17.2
 (Enter /opt/apps/apps/binapps/gaussian/g09d01_em64t/g09/l502.exe)
 Closed shell SCF:
 Using DIIS extrapolation, IDIIS=  1040.
 Two-electron integral symmetry not used.
 Keep J ints in memory in canonical form, NReq=57665855.
 IVT=       83455 IEndB=       83455 NGot=  1073741824 MDV=  1017631965
 LenX=  1017631965 LenY=  1017610499
 Requested convergence on RMS density matrix=1.00D-08 within 128 cycles.
 Requested convergence on MAX density matrix=1.00D-06.
 Requested convergence on             energy=1.00D-06.
 No special actions if energy rises.
 FoFCou: FMM=F IPFlag=           0 FMFlag=           0 FMFlg1=           0
         NFxFlg=           0 DoJE=F BraDBF=F KetDBF=F FulRan=T
         wScrn=  0.000000 ICntrl=     600 IOpCl=  0 I1Cent=           0 NGrid=           0
         NMat0=    1 NMatS0=  10585 NMatT0=    0 NMatD0=    1 NMtDS0=    0 NMtDT0=    0
 Symmetry not used in FoFCou.
 Integral accuracy reduced to 1.0D-05 until final iterations.

 Cycle   1  Pass 0  IDiag  1:
 E= -938.488459079894    
 DIIS: error= 1.86D-02 at cycle   1 NSaved=   1.
 NSaved= 1 IEnMin= 1 EnMin= -938.488459079894     IErMin= 1 ErrMin= 1.86D-02
 ErrMax= 1.86D-02  0.00D+00 EMaxC= 1.00D-01 BMatC= 1.23D-01 BMatP= 1.23D-01
 IDIUse=3 WtCom= 8.14D-01 WtEn= 1.86D-01
 Coeff-Com:  0.100D+01
 Coeff-En:   0.100D+01
 Coeff:      0.100D+01
 Gap=     0.193 Goal=   None    Shift=    0.000
 GapD=    0.193 DampG=1.000 DampE=0.500 DampFc=0.5000 IDamp=-1.
 Damping current iteration by 5.00D-01
 RMSDP=8.51D-03 MaxDP=1.44D-01              OVMax= 0.00D+00

 Cycle   2  Pass 0  IDiag  1:
 E= -938.552351959448     Delta-E=       -0.063892879554 Rises=F Damp=T
 DIIS: error= 1.15D-02 at cycle   2 NSaved=   2.
 NSaved= 2 IEnMin= 2 EnMin= -938.552351959448     IErMin= 2 ErrMin= 1.15D-02
 ErrMax= 1.15D-02  0.00D+00 EMaxC= 1.00D-01 BMatC= 2.19D-02 BMatP= 1.23D-01
 IDIUse=3 WtCom= 8.85D-01 WtEn= 1.15D-01
 Coeff-Com:  0.162D+00 0.838D+00
 Coeff-En:   0.267D+00 0.733D+00
 Coeff:      0.174D+00 0.826D+00
 Gap=     0.228 Goal=   None    Shift=    0.000
 RMSDP=3.72D-03 MaxDP=8.68D-02 DE=-6.39D-02 OVMax= 0.00D+00

 Cycle   3  Pass 0  IDiag  1:
 E= -938.585802502427     Delta-E=       -0.033450542980 Rises=F Damp=F
 DIIS: error= 2.20D-02 at cycle   3 NSaved=   3.
 NSaved= 3 IEnMin= 3 EnMin= -938.585802502427     IErMin= 2 ErrMin= 1.15D-02
 ErrMax= 2.20D-02  0.00D+00 EMaxC= 1.00D-01 BMatC= 7.06D-02 BMatP= 2.19D-02
 IDIUse=2 WtCom= 0.00D+00 WtEn= 1.00D+00
 Coeff-En:   0.000D+00 0.401D+00 0.599D+00
 Coeff:      0.000D+00 0.401D+00 0.599D+00
 Gap=     0.191 Goal=   None    Shift=    0.000
 RMSDP=4.93D-03 MaxDP=1.20D-01 DE=-3.35D-02 OVMax= 0.00D+00

 Cycle   4  Pass 0  IDiag  1:
 E= -938.570773189351     Delta-E=        0.015029313077 Rises=F Damp=F
 DIIS: error= 2.41D-02 at cycle   4 NSaved=   4.
 NSaved= 4 IEnMin= 3 EnMin= -938.585802502427     IErMin= 2 ErrMin= 1.15D-02
 ErrMax= 2.41D-02  0.00D+00 EMaxC= 1.00D-01 BMatC= 7.99D-02 BMatP= 2.19D-02
 IDIUse=2 WtCom= 0.00D+00 WtEn= 1.00D+00
 Coeff-En:   0.000D+00 0.000D+00 0.525D+00 0.475D+00
 Coeff:      0.000D+00 0.000D+00 0.525D+00 0.475D+00
 Gap=     0.193 Goal=   None    Shift=    0.000
 RMSDP=2.60D-03 MaxDP=6.12D-02 DE= 1.50D-02 OVMax= 0.00D+00

 Cycle   5  Pass 0  IDiag  1:
 E= -938.683057524147     Delta-E=       -0.112284334796 Rises=F Damp=F
 DIIS: error= 1.25D-03 at cycle   5 NSaved=   5.
 NSaved= 5 IEnMin= 5 EnMin= -938.683057524147     IErMin= 5 ErrMin= 1.25D-03
 ErrMax= 1.25D-03  0.00D+00 EMaxC= 1.00D-01 BMatC= 4.38D-04 BMatP= 2.19D-02
 IDIUse=3 WtCom= 9.88D-01 WtEn= 1.25D-02
 Coeff-Com: -0.285D-01 0.314D-01 0.128D+00 0.905D-01 0.779D+00
 Coeff-En:   0.000D+00 0.000D+00 0.000D+00 0.000D+00 0.100D+01
 Coeff:     -0.282D-01 0.310D-01 0.126D+00 0.894D-01 0.782D+00
 Gap=     0.191 Goal=   None    Shift=    0.000
 RMSDP=2.80D-04 MaxDP=5.99D-03 DE=-1.12D-01 OVMax= 0.00D+00

 Cycle   6  Pass 0  IDiag  1:
 E= -938.683562989432     Delta-E=       -0.000505465285 Rises=F Damp=F
 DIIS: error= 6.12D-04 at cycle   6 NSaved=   6.
 NSaved= 6 IEnMin= 6 EnMin= -938.683562989432     IErMin= 6 ErrMin= 6.12D-04
 ErrMax= 6.12D-04  0.00D+00 EMaxC= 1.00D-01 BMatC= 1.15D-04 BMatP= 4.38D-04
 IDIUse=3 WtCom= 9.94D-01 WtEn= 6.12D-03
 Coeff-Com: -0.331D-01 0.634D-01 0.168D-01-0.299D-01 0.517D+00 0.466D+00
 Coeff-En:   0.000D+00 0.000D+00 0.000D+00 0.000D+00 0.396D-01 0.960D+00
 Coeff:     -0.329D-01 0.630D-01 0.167D-01-0.298D-01 0.514D+00 0.469D+00
 Gap=     0.190 Goal=   None    Shift=    0.000
 RMSDP=1.02D-04 MaxDP=4.22D-03 DE=-5.05D-04 OVMax= 0.00D+00

 Cycle   7  Pass 0  IDiag  1:
 E= -938.683709762537     Delta-E=       -0.000146773105 Rises=F Damp=F
 DIIS: error= 1.21D-04 at cycle   7 NSaved=   7.
 NSaved= 7 IEnMin= 7 EnMin= -938.683709762537     IErMin= 7 ErrMin= 1.21D-04
 ErrMax= 1.21D-04  0.00D+00 EMaxC= 1.00D-01 BMatC= 2.56D-06 BMatP= 1.15D-04
 IDIUse=3 WtCom= 9.99D-01 WtEn= 1.21D-03
 Coeff-Com: -0.219D-01 0.429D-01 0.965D-02-0.214D-01 0.336D+00 0.316D+00
 Coeff-Com:  0.338D+00
 Coeff-En:   0.000D+00 0.000D+00 0.000D+00 0.000D+00 0.000D+00 0.000D+00
 Coeff-En:   0.100D+01
 Coeff:     -0.219D-01 0.429D-01 0.964D-02-0.214D-01 0.336D+00 0.316D+00
 Coeff:      0.339D+00
 Gap=     0.190 Goal=   None    Shift=    0.000
 RMSDP=1.57D-05 MaxDP=5.89D-04 DE=-1.47D-04 OVMax= 0.00D+00

 Cycle   8  Pass 0  IDiag  1:
 E= -938.683713298087     Delta-E=       -0.000003535550 Rises=F Damp=F
 DIIS: error= 1.72D-05 at cycle   8 NSaved=   8.
 NSaved= 8 IEnMin= 8 EnMin= -938.683713298087     IErMin= 8 ErrMin= 1.72D-05
 ErrMax= 1.72D-05  0.00D+00 EMaxC= 1.00D-01 BMatC= 4.30D-08 BMatP= 2.56D-06
 IDIUse=1 WtCom= 1.00D+00 WtEn= 0.00D+00
 Coeff-Com: -0.493D-02 0.982D-02 0.184D-02-0.473D-02 0.734D-01 0.725D-01
 Coeff-Com:  0.110D+00 0.742D+00
 Coeff:     -0.493D-02 0.982D-02 0.184D-02-0.473D-02 0.734D-01 0.725D-01
 Coeff:      0.110D+00 0.742D+00
 Gap=     0.190 Goal=   None    Shift=    0.000
 RMSDP=2.51D-06 MaxDP=5.90D-05 DE=-3.54D-06 OVMax= 0.00D+00

 Initial convergence to 1.0D-05 achieved.  Increase integral accuracy.
 Cycle   9  Pass 1  IDiag  1:
 E= -938.683729856242     Delta-E=       -0.000016558155 Rises=F Damp=F
 DIIS: error= 8.39D-06 at cycle   1 NSaved=   1.
 NSaved= 1 IEnMin= 1 EnMin= -938.683729856242     IErMin= 1 ErrMin= 8.39D-06
 ErrMax= 8.39D-06  0.00D+00 EMaxC= 1.00D-01 BMatC= 1.46D-08 BMatP= 1.46D-08
 IDIUse=1 WtCom= 1.00D+00 WtEn= 0.00D+00
 Coeff-Com:  0.100D+01
 Coeff:      0.100D+01
 Gap=     0.190 Goal=   None    Shift=    0.000
 RMSDP=2.51D-06 MaxDP=5.90D-05 DE=-1.66D-05 OVMax= 0.00D+00

 Cycle  10  Pass 1  IDiag  1:
 E= -938.683729772369     Delta-E=        0.000000083873 Rises=F Damp=F
 DIIS: error= 2.03D-05 at cycle   2 NSaved=   2.
 NSaved= 2 IEnMin= 1 EnMin= -938.683729856242     IErMin= 1 ErrMin= 8.39D-06
 ErrMax= 2.03D-05  0.00D+00 EMaxC= 1.00D-01 BMatC= 7.46D-08 BMatP= 1.46D-08
 IDIUse=1 WtCom= 1.00D+00 WtEn= 0.00D+00
 Coeff-Com:  0.694D+00 0.306D+00
 Coeff:      0.694D+00 0.306D+00
 Gap=     0.190 Goal=   None    Shift=    0.000
 RMSDP=2.64D-06 MaxDP=8.61D-05 DE= 8.39D-08 OVMax= 0.00D+00

 Cycle  11  Pass 1  IDiag  1:
 E= -938.683729876083     Delta-E=       -0.000000103714 Rises=F Damp=F
 DIIS: error= 2.08D-06 at cycle   3 NSaved=   3.
 NSaved= 3 IEnMin= 3 EnMin= -938.683729876083     IErMin= 3 ErrMin= 2.08D-06
 ErrMax= 2.08D-06  0.00D+00 EMaxC= 1.00D-01 BMatC= 5.68D-10 BMatP= 1.46D-08
 IDIUse=1 WtCom= 1.00D+00 WtEn= 0.00D+00
 Coeff-Com:  0.422D+00 0.192D+00 0.386D+00
 Coeff:      0.422D+00 0.192D+00 0.386D+00
 Gap=     0.190 Goal=   None    Shift=    0.000
 RMSDP=2.84D-07 MaxDP=7.59D-06 DE=-1.04D-07 OVMax= 0.00D+00

 Cycle  12  Pass 1  IDiag  1:
 E= -938.683729876711     Delta-E=       -0.000000000628 Rises=F Damp=F
 DIIS: error= 8.22D-07 at cycle   4 NSaved=   4.
 NSaved= 4 IEnMin= 4 EnMin= -938.683729876711     IErMin= 4 ErrMin= 8.22D-07
 ErrMax= 8.22D-07  0.00D+00 EMaxC= 1.00D-01 BMatC= 7.59D-11 BMatP= 5.68D-10
 IDIUse=1 WtCom= 1.00D+00 WtEn= 0.00D+00
 Coeff-Com:  0.864D-01 0.434D-01 0.266D+00 0.604D+00
 Coeff:      0.864D-01 0.434D-01 0.266D+00 0.604D+00
 Gap=     0.190 Goal=   None    Shift=    0.000
 RMSDP=1.06D-07 MaxDP=2.31D-06 DE=-6.28D-10 OVMax= 0.00D+00

 Cycle  13  Pass 1  IDiag  1:
 E= -938.683729876841     Delta-E=       -0.000000000131 Rises=F Damp=F
 DIIS: error= 2.74D-07 at cycle   5 NSaved=   5.
 NSaved= 5 IEnMin= 5 EnMin= -938.683729876841     IErMin= 5 ErrMin= 2.74D-07
 ErrMax= 2.74D-07  0.00D+00 EMaxC= 1.00D-01 BMatC= 1.73D-11 BMatP= 7.59D-11
 IDIUse=1 WtCom= 1.00D+00 WtEn= 0.00D+00
 Coeff-Com:  0.184D-01 0.114D-01 0.148D+00 0.425D+00 0.397D+00
 Coeff:      0.184D-01 0.114D-01 0.148D+00 0.425D+00 0.397D+00
 Gap=     0.190 Goal=   None    Shift=    0.000
 RMSDP=4.49D-08 MaxDP=1.58D-06 DE=-1.31D-10 OVMax= 0.00D+00

 Cycle  14  Pass 1  IDiag  1:
 E= -938.683729876850     Delta-E=       -0.000000000009 Rises=F Damp=F
 DIIS: error= 6.84D-08 at cycle   6 NSaved=   6.
 NSaved= 6 IEnMin= 6 EnMin= -938.683729876850     IErMin= 6 ErrMin= 6.84D-08
 ErrMax= 6.84D-08  0.00D+00 EMaxC= 1.00D-01 BMatC= 8.13D-13 BMatP= 1.73D-11
 IDIUse=1 WtCom= 1.00D+00 WtEn= 0.00D+00
 Coeff-Com:  0.397D-02 0.330D-02 0.668D-01 0.203D+00 0.243D+00 0.480D+00
 Coeff:      0.397D-02 0.330D-02 0.668D-01 0.203D+00 0.243D+00 0.480D+00
 Gap=     0.190 Goal=   None    Shift=    0.000
 RMSDP=1.03D-08 MaxDP=3.42D-07 DE=-8.64D-12 OVMax= 0.00D+00

 Cycle  15  Pass 1  IDiag  1:
 E= -938.683729876844     Delta-E=        0.000000000006 Rises=F Damp=F
 DIIS: error= 1.52D-08 at cycle   7 NSaved=   7.
 NSaved= 7 IEnMin= 6 EnMin= -938.683729876850     IErMin= 7 ErrMin= 1.52D-08
 ErrMax= 1.52D-08  0.00D+00 EMaxC= 1.00D-01 BMatC= 6.29D-14 BMatP= 8.13D-13
 IDIUse=1 WtCom= 1.00D+00 WtEn= 0.00D+00
 Coeff-Com:  0.113D-02 0.121D-02 0.306D-01 0.939D-01 0.122D+00 0.294D+00
 Coeff-Com:  0.458D+00
 Coeff:      0.113D-02 0.121D-02 0.306D-01 0.939D-01 0.122D+00 0.294D+00
 Coeff:      0.458D+00
 Gap=     0.190 Goal=   None    Shift=    0.000
 RMSDP=2.71D-09 MaxDP=9.75D-08 DE= 6.37D-12 OVMax= 0.00D+00

 SCF Done:  E(RPBE-PBE) =  -938.683729877     A.U. after   15 cycles
            NFock= 15  Conv=0.27D-08     -V/T= 2.0143
 KE= 9.254254264499D+02 PE=-6.147339412232D+03 EE= 2.310707477118D+03
 Leave Link  502 at Fri Aug 13 11:24:51 2021, MaxMem=  1073741824 cpu:       155.3
 (Enter /opt/apps/apps/binapps/gaussian/g09d01_em64t/g09/l508.exe)
 QCSCF skips out because SCF is already converged.
 Leave Link  508 at Fri Aug 13 11:24:51 2021, MaxMem=  1073741824 cpu:         0.0
 (Enter /opt/apps/apps/binapps/gaussian/g09d01_em64t/g09/l601.exe)
 Copying SCF densities to generalized density rwf, IOpCl= 0 IROHF=0.

 **********************************************************************

            Population analysis using the SCF density.

 **********************************************************************

 Alpha  occ. eigenvalues --   -9.57072  -9.57028  -9.56991  -9.56975  -9.56907
 Alpha  occ. eigenvalues --   -9.56904  -9.56848  -9.56843  -9.56807  -9.56802
 Alpha  occ. eigenvalues --   -9.56788  -9.56762  -9.55489  -9.55416  -9.55276
 Alpha  occ. eigenvalues --   -9.55238  -9.55207  -9.55187  -9.55172  -9.55165
 Alpha  occ. eigenvalues --   -9.52840  -9.52776  -9.52706  -9.52702  -6.08207
 Alpha  occ. eigenvalues --   -0.58615  -0.58174  -0.58163  -0.58124  -0.49324
 Alpha  occ. eigenvalues --   -0.48795  -0.48568  -0.48494  -0.48378  -0.47390
 Alpha  occ. eigenvalues --   -0.47341  -0.47303  -0.36324  -0.36157  -0.35474
 Alpha  occ. eigenvalues --   -0.35317  -0.34925  -0.34473  -0.34386  -0.34367
 Alpha  occ. eigenvalues --   -0.29575  -0.28014  -0.27933  -0.27858  -0.23553
 Alpha  occ. eigenvalues --   -0.22124  -0.22002  -0.21810  -0.20272  -0.19869
 Alpha  occ. eigenvalues --   -0.19806  -0.19556  -0.19218  -0.18526  -0.18440
 Alpha  occ. eigenvalues --   -0.18412  -0.18253  -0.15980  -0.15368  -0.15344
 Alpha  occ. eigenvalues --   -0.12598  -0.12530  -0.12405  -0.12278  -0.11458
 Alpha  occ. eigenvalues --   -0.10422  -0.10070  -0.10026  -0.09715  -0.04259
 Alpha  occ. eigenvalues --   -0.03815  -0.03705  -0.02262  -0.02118  -0.01924
 Alpha  occ. eigenvalues --   -0.01823  -0.01051  -0.00170   0.00621   0.00884
 Alpha virt. eigenvalues --    0.19904   0.20322   0.20419   0.20611   0.20745
 Alpha virt. eigenvalues --    0.20875   0.21072   0.21193   0.34914   0.35125
 Alpha virt. eigenvalues --    0.35331   0.35702   0.43933   0.44042   0.44216
 Alpha virt. eigenvalues --    0.44349   0.47597   0.48490   0.48761   0.49438
 Alpha virt. eigenvalues --    0.51752   0.52351   0.52650   0.53048   0.54440
 Alpha virt. eigenvalues --    0.54532   0.54641   0.54789   0.55522   0.55674
 Alpha virt. eigenvalues --    0.55906   0.56607   0.58448   0.58610   0.58656
 Alpha virt. eigenvalues --    0.59027   0.65246   0.65904   0.66058   0.67513
 Alpha virt. eigenvalues --    0.68493   0.68694   0.69018   0.69552   0.70187
 Alpha virt. eigenvalues --    0.70393   0.70693   0.70910   0.72036   0.72695
 Alpha virt. eigenvalues --    0.72917   0.73226   0.84646   0.85355   0.85641
 Alpha virt. eigenvalues --    0.85783   0.89367   0.89543   0.89848   0.90219
          Condensed to atoms (all electrons):
               1          2          3          4          5          6
     1  H    0.600477   0.000000  -0.000248   0.000000   0.000000   0.000003
     2  H    0.000000   0.612534   0.000000   0.000000  -0.000040   0.000000
     3  H   -0.000248   0.000000   0.598541   0.000000   0.000000   0.000000
     4  H    0.000000   0.000000   0.000000   0.612132   0.000000   0.000000
     5  H    0.000000  -0.000040   0.000000   0.000000   0.601001   0.000000
     6  H    0.000003   0.000000   0.000000   0.000000   0.000000   0.612803
     7  H   -0.000049   0.000000   0.000000  -0.000040  -0.000684   0.000000
     8  H    0.000000   0.000000   0.000003   0.000000   0.000000   0.000000
     9  H   -0.003979   0.000000  -0.000002   0.000000   0.000000  -0.000041
    10  H    0.000000  -0.003857   0.000000   0.000000   0.000003   0.000000
    11  H    0.000000   0.000000  -0.004001   0.000000   0.000000   0.000000
    12  H    0.000000   0.000000   0.000000  -0.003765   0.000000   0.000000
    13  H    0.000000  -0.003777   0.000000   0.000000  -0.004178   0.000000
    14  H   -0.000038   0.000000  -0.000005   0.000000  -0.000004  -0.003948
    15  H   -0.000007   0.000000  -0.000003  -0.000040  -0.000001   0.000000
    16  H    0.000000   0.000000  -0.000041   0.000000   0.000000   0.000000
    17  H    0.000000   0.000000   0.000000  -0.003759   0.000000   0.000000
    18  H    0.000000   0.000000  -0.000039   0.000000  -0.000002   0.000000
    19  H   -0.000041   0.000000   0.000000   0.000000   0.000000  -0.003909
    20  H    0.000000  -0.000040  -0.000005   0.000000  -0.000039   0.000000
    21  B   -0.004797   0.000001  -0.004221   0.000001  -0.003952  -0.000025
    22  C    0.000000   0.000000   0.000042   0.000000   0.000000   0.000000
    23  C   -0.028602   0.000000   0.000421   0.000000   0.000064   0.001446
    24  C   -0.000007   0.000000   0.001820   0.000000   0.000001   0.000000
    25  C    0.000047   0.000000  -0.000001   0.000000   0.000000   0.387222
    26  C   -0.000033   0.000000   0.000006   0.001505  -0.000003   0.000000
    27  C    0.000000  -0.026129   0.000000   0.000000   0.000045   0.000000
    28  C    0.000000   0.001496   0.000000   0.000000   0.387092   0.000000
    29  C   -0.000010   0.000000   0.000000  -0.026020  -0.000006   0.000000
    30  C    0.000000   0.000000   0.001552   0.000000   0.000000   0.000000
    31  C   -0.028529   0.000000   0.000002   0.000000   0.000000   0.001584
    32  C    0.388845   0.000000   0.001227   0.000000  -0.000003   0.000051
    33  C    0.001565   0.000000  -0.000021   0.000000   0.000000  -0.027337
    34  C    0.000000  -0.025959   0.000000   0.000000  -0.028990   0.000000
    35  C   -0.000081   0.000000   0.387091   0.000000   0.000000   0.000000
    36  C    0.000001   0.000000  -0.028800   0.000000   0.000000   0.000000
    37  C    0.000085   0.000000  -0.000001   0.001495   0.001420   0.000000
    38  C    0.000019   0.000022   0.000021   0.000000  -0.027416   0.000000
    39  C    0.001829   0.000000  -0.000048   0.000000   0.000011  -0.025907
    40  C    0.000723   0.000000   0.000042   0.000023  -0.000230   0.000000
    41  C    0.000000   0.388282   0.000000   0.000000   0.001550   0.000000
    42  C    0.000000   0.001510   0.000003   0.000000   0.001816   0.000001
    43  C    0.000006   0.000000   0.000000  -0.026058   0.000000   0.000000
    44  C   -0.000002   0.000000   0.000000   0.388268  -0.000008   0.000000
    45  C    0.000128   0.000000  -0.027608   0.000000   0.000012   0.000000
               7          8          9         10         11         12
     1  H   -0.000049   0.000000  -0.003979   0.000000   0.000000   0.000000
     2  H    0.000000   0.000000   0.000000  -0.003857   0.000000   0.000000
     3  H    0.000000   0.000003  -0.000002   0.000000  -0.004001   0.000000
     4  H   -0.000040   0.000000   0.000000   0.000000   0.000000  -0.003765
     5  H   -0.000684   0.000000   0.000000   0.000003   0.000000   0.000000
     6  H    0.000000   0.000000  -0.000041   0.000000   0.000000   0.000000
     7  H    0.603796   0.000000   0.000000   0.000000   0.000000   0.000003
     8  H    0.000000   0.611848   0.000000   0.000000  -0.000041   0.000000
     9  H    0.000000   0.000000   0.612159   0.000000   0.000000   0.000000
    10  H    0.000000   0.000000   0.000000   0.612445   0.000000   0.000000
    11  H    0.000000  -0.000041   0.000000   0.000000   0.612219   0.000000
    12  H    0.000003   0.000000   0.000000   0.000000   0.000000   0.612481
    13  H    0.000002   0.000000   0.000000  -0.000042   0.000000   0.000000
    14  H   -0.000003   0.000000   0.000003  -0.000001   0.000000   0.000000
    15  H   -0.000038   0.000000   0.000000   0.000000   0.000000  -0.004157
    16  H    0.000000  -0.003723   0.000000   0.000000  -0.004009   0.000000
    17  H   -0.004150   0.000000   0.000000   0.000000   0.000000  -0.000041
    18  H    0.000000  -0.003954   0.000000   0.000000   0.000003   0.000001
    19  H    0.000000   0.000000  -0.003816   0.000000   0.000000   0.000000
    20  H    0.000000   0.000000   0.000000  -0.004068   0.000000   0.000000
    21  B   -0.003947  -0.000027  -0.000028  -0.000026  -0.000024  -0.000025
    22  C    0.000000   0.386908   0.000000   0.000000   0.001577   0.000000
    23  C    0.000389   0.000000   0.001431   0.000000   0.000000   0.000000
    24  C    0.000000  -0.025653   0.000000   0.000002   0.000049   0.000002
    25  C    0.000002   0.000000   0.001567   0.000000   0.000000   0.000000
    26  C    0.001785   0.000000   0.000000   0.000000   0.000000  -0.026308
    27  C    0.000000   0.000000   0.000000   0.387299   0.000000   0.000000
    28  C   -0.001207   0.000000   0.000000   0.000048   0.000000   0.000000
    29  C   -0.029166   0.000000   0.000000   0.000000   0.000000   0.001567
    30  C    0.000000  -0.026912   0.000000   0.000000  -0.027459   0.000000
    31  C   -0.000005   0.000000   0.387048   0.000000   0.000000   0.000000
    32  C    0.000103   0.000000  -0.025797   0.000000   0.000001   0.000000
    33  C   -0.000001   0.000000  -0.026947   0.000000   0.000000   0.000000
    34  C    0.000015   0.000000   0.000000   0.001594   0.000000   0.000000
    35  C    0.000000   0.000045   0.000000   0.000000  -0.025636   0.000000
    36  C    0.000000   0.001560   0.000000   0.000000   0.387595   0.000000
    37  C    0.388075   0.000000   0.000001   0.000000   0.000000   0.000048
    38  C    0.000172   0.000000   0.000000   0.001414   0.000000   0.000000
    39  C   -0.000032   0.000000   0.000044   0.000000   0.000000   0.000000
    40  C   -0.027384   0.000000   0.000000   0.000000   0.000000   0.001441
    41  C    0.000000   0.000000   0.000000  -0.027301   0.000000   0.000000
    42  C   -0.000007   0.000001   0.000000  -0.025781   0.000000   0.000000
    43  C    0.000046   0.000000   0.000000   0.000000   0.000000   0.387411
    44  C    0.001560   0.000000   0.000000   0.000000   0.000000  -0.026897
    45  C    0.000012   0.001413   0.000000   0.000000   0.001419   0.000000
              13         14         15         16         17         18
     1  H    0.000000  -0.000038  -0.000007   0.000000   0.000000   0.000000
     2  H   -0.003777   0.000000   0.000000   0.000000   0.000000   0.000000
     3  H    0.000000  -0.000005  -0.000003  -0.000041   0.000000  -0.000039
     4  H    0.000000   0.000000  -0.000040   0.000000  -0.003759   0.000000
     5  H   -0.004178  -0.000004  -0.000001   0.000000   0.000000  -0.000002
     6  H    0.000000  -0.003948   0.000000   0.000000   0.000000   0.000000
     7  H    0.000002  -0.000003  -0.000038   0.000000  -0.004150   0.000000
     8  H    0.000000   0.000000   0.000000  -0.003723   0.000000  -0.003954
     9  H    0.000000   0.000003   0.000000   0.000000   0.000000   0.000000
    10  H   -0.000042  -0.000001   0.000000   0.000000   0.000000   0.000000
    11  H    0.000000   0.000000   0.000000  -0.004009   0.000000   0.000003
    12  H    0.000000   0.000000  -0.004157   0.000000  -0.000041   0.000001
    13  H    0.613104   0.000000   0.000000   0.000000   0.000000   0.000000
    14  H    0.000000   0.598882   0.000000   0.000000   0.000000   0.000000
    15  H    0.000000   0.000000   0.599169   0.000000   0.000003  -0.000486
    16  H    0.000000   0.000000   0.000000   0.612551   0.000000  -0.000040
    17  H    0.000000   0.000000   0.000003   0.000000   0.612713   0.000000
    18  H    0.000000   0.000000  -0.000486  -0.000040   0.000000   0.602792
    19  H    0.000000  -0.000039   0.000000   0.000000   0.000000   0.000000
    20  H    0.000003  -0.000154   0.000000   0.000000   0.000000  -0.000158
    21  B   -0.000024  -0.004189  -0.004422   0.000001  -0.000026  -0.004454
    22  C    0.000000   0.000000  -0.000001  -0.025797   0.000000  -0.028395
    23  C    0.000000  -0.027872   0.000023   0.000000   0.000000   0.000016
    24  C    0.000000  -0.000002   0.001216   0.001508   0.000000   0.387978
    25  C    0.000000  -0.028284   0.000000   0.000000   0.000000   0.000000
    26  C    0.000000   0.000000   0.387641   0.000000   0.000049  -0.000253
    27  C    0.001589   0.000013   0.000000   0.000000   0.000000  -0.000008
    28  C   -0.026201   0.000001   0.000003   0.000000   0.000001  -0.000043
    29  C    0.000000   0.000000   0.000044   0.000000   0.387123   0.000000
    30  C    0.000000   0.000000  -0.000010   0.388558   0.000000   0.001551
    31  C    0.000000   0.000040   0.000000   0.000000   0.000000   0.000000
    32  C    0.000000   0.001819   0.000004   0.000000   0.000001   0.000000
    33  C    0.000000   0.001520   0.000000   0.000000   0.000000   0.000000
    34  C    0.387465  -0.000002   0.000000   0.000000   0.000000   0.000002
    35  C    0.000000   0.000011  -0.000051   0.001535   0.000000   0.001832
    36  C    0.000000   0.000000   0.000001  -0.026738   0.000000   0.000048
    37  C    0.000003   0.000002   0.001795   0.000000  -0.026044  -0.000010
    38  C    0.001429   0.000529   0.000040   0.000000   0.000000   0.000359
    39  C    0.000000   0.387284   0.000000   0.000000   0.000000   0.000000
    40  C    0.000000   0.000017  -0.027675   0.000000   0.001418   0.000175
    41  C   -0.027140  -0.000014   0.000000   0.000000   0.000000  -0.000001
    42  C    0.000051   0.001022  -0.000001   0.000000   0.000000   0.000069
    43  C    0.000000   0.000000  -0.028877   0.000000   0.001563   0.000003
    44  C    0.000000   0.000000   0.001548   0.000000  -0.026888   0.000000
    45  C    0.000000   0.000053   0.000460   0.000026   0.000000  -0.028502
              19         20         21         22         23         24
     1  H   -0.000041   0.000000  -0.004797   0.000000  -0.028602  -0.000007
     2  H    0.000000  -0.000040   0.000001   0.000000   0.000000   0.000000
     3  H    0.000000  -0.000005  -0.004221   0.000042   0.000421   0.001820
     4  H    0.000000   0.000000   0.000001   0.000000   0.000000   0.000000
     5  H    0.000000  -0.000039  -0.003952   0.000000   0.000064   0.000001
     6  H   -0.003909   0.000000  -0.000025   0.000000   0.001446   0.000000
     7  H    0.000000   0.000000  -0.003947   0.000000   0.000389   0.000000
     8  H    0.000000   0.000000  -0.000027   0.386908   0.000000  -0.025653
     9  H   -0.003816   0.000000  -0.000028   0.000000   0.001431   0.000000
    10  H    0.000000  -0.004068  -0.000026   0.000000   0.000000   0.000002
    11  H    0.000000   0.000000  -0.000024   0.001577   0.000000   0.000049
    12  H    0.000000   0.000000  -0.000025   0.000000   0.000000   0.000002
    13  H    0.000000   0.000003  -0.000024   0.000000   0.000000   0.000000
    14  H   -0.000039  -0.000154  -0.004189   0.000000  -0.027872  -0.000002
    15  H    0.000000   0.000000  -0.004422  -0.000001   0.000023   0.001216
    16  H    0.000000   0.000000   0.000001  -0.025797   0.000000   0.001508
    17  H    0.000000   0.000000  -0.000026   0.000000   0.000000   0.000000
    18  H    0.000000  -0.000158  -0.004454  -0.028395   0.000016   0.387978
    19  H    0.611903   0.000000   0.000001   0.000000   0.000026   0.000000
    20  H    0.000000   0.599659  -0.004598  -0.000038   0.000095   0.000238
    21  B    0.000001  -0.004598   3.621841   0.001114   0.360243  -0.023491
    22  C    0.000000  -0.000038   0.001114   4.836164  -0.000003   0.505168
    23  C    0.000026   0.000095   0.360243  -0.000003   4.887826   0.000366
    24  C    0.000000   0.000238  -0.023491   0.505168   0.000366   4.850081
    25  C   -0.026259   0.000001   0.001073   0.000000  -0.026643   0.000000
    26  C    0.000000   0.000000  -0.022154  -0.000026   0.000257  -0.001624
    27  C    0.000000  -0.028867   0.001101   0.000000  -0.000003  -0.000007
    28  C    0.000000   0.001828  -0.020842   0.000000  -0.000474   0.000003
    29  C    0.000000   0.000000   0.001078   0.000000   0.000010   0.000000
    30  C    0.000000  -0.000007   0.000028   0.503008   0.000000  -0.030755
    31  C   -0.026255   0.000000   0.001156   0.000000  -0.026184   0.000000
    32  C    0.001530  -0.000004  -0.024252   0.000000   0.487682   0.000003
    33  C    0.388903   0.000000   0.000030   0.000000  -0.010772   0.000000
    34  C    0.000000   0.000049   0.001016   0.000000  -0.000004   0.000000
    35  C    0.000000  -0.000072  -0.021447  -0.013352  -0.004898  -0.033857
    36  C    0.000000   0.000009   0.001056  -0.031202   0.000039  -0.013679
    37  C    0.000000   0.000000  -0.022676   0.000000  -0.002453   0.000001
    38  C    0.000000  -0.028123   0.358726   0.000012  -0.011894  -0.002921
    39  C    0.001508  -0.000059  -0.021606   0.000000   0.492169   0.000000
    40  C    0.000000   0.000018   0.361892   0.000001  -0.012957  -0.001058
    41  C    0.000000   0.001564   0.000026   0.000000   0.000001   0.000000
    42  C    0.000000   0.388532  -0.023268  -0.000033  -0.000675  -0.000982
    43  C    0.000000   0.000000   0.001081   0.000000  -0.000003   0.000003
    44  C    0.000000   0.000000   0.000028   0.000000   0.000000   0.000000
    45  C    0.000000   0.000635   0.361606  -0.025995  -0.012710   0.486074
              25         26         27         28         29         30
     1  H    0.000047  -0.000033   0.000000   0.000000  -0.000010   0.000000
     2  H    0.000000   0.000000  -0.026129   0.001496   0.000000   0.000000
     3  H   -0.000001   0.000006   0.000000   0.000000   0.000000   0.001552
     4  H    0.000000   0.001505   0.000000   0.000000  -0.026020   0.000000
     5  H    0.000000  -0.000003   0.000045   0.387092  -0.000006   0.000000
     6  H    0.387222   0.000000   0.000000   0.000000   0.000000   0.000000
     7  H    0.000002   0.001785   0.000000  -0.001207  -0.029166   0.000000
     8  H    0.000000   0.000000   0.000000   0.000000   0.000000  -0.026912
     9  H    0.001567   0.000000   0.000000   0.000000   0.000000   0.000000
    10  H    0.000000   0.000000   0.387299   0.000048   0.000000   0.000000
    11  H    0.000000   0.000000   0.000000   0.000000   0.000000  -0.027459
    12  H    0.000000  -0.026308   0.000000   0.000000   0.001567   0.000000
    13  H    0.000000   0.000000   0.001589  -0.026201   0.000000   0.000000
    14  H   -0.028284   0.000000   0.000013   0.000001   0.000000   0.000000
    15  H    0.000000   0.387641   0.000000   0.000003   0.000044  -0.000010
    16  H    0.000000   0.000000   0.000000   0.000000   0.000000   0.388558
    17  H    0.000000   0.000049   0.000000   0.000001   0.387123   0.000000
    18  H    0.000000  -0.000253  -0.000008  -0.000043   0.000000   0.001551
    19  H   -0.026259   0.000000   0.000000   0.000000   0.000000   0.000000
    20  H    0.000001   0.000000  -0.028867   0.001828   0.000000  -0.000007
    21  B    0.001073  -0.022154   0.001101  -0.020842   0.001078   0.000028
    22  C    0.000000  -0.000026   0.000000   0.000000   0.000000   0.503008
    23  C   -0.026643   0.000257  -0.000003  -0.000474   0.000010   0.000000
    24  C    0.000000  -0.001624  -0.000007   0.000003   0.000000  -0.030755
    25  C    4.835799   0.000000   0.000000   0.000000   0.000000   0.000000
    26  C    0.000000   4.852112   0.000000   0.000005  -0.013513   0.000001
    27  C    0.000000   0.000000   4.836534  -0.013571   0.000000   0.000000
    28  C    0.000000   0.000005  -0.013571   4.851307  -0.000030   0.000000
    29  C    0.000000  -0.013513   0.000000  -0.000030   4.837214   0.000000
    30  C    0.000000   0.000001   0.000000   0.000000   0.000000   4.839313
    31  C   -0.031303   0.000000   0.000000   0.000000   0.000000   0.000000
    32  C   -0.013804  -0.000061   0.000000   0.000001  -0.000010   0.000000
    33  C    0.505559   0.000000   0.000000   0.000000   0.000000   0.000000
    34  C    0.000000   0.000000  -0.031767   0.503775   0.000000   0.000000
    35  C    0.000003  -0.000027   0.000000  -0.000002   0.000000  -0.030482
    36  C    0.000000   0.000001   0.000000   0.000000   0.000000   0.505498
    37  C    0.000000  -0.033506   0.000000  -0.002292   0.504630   0.000000
    38  C    0.000029  -0.000031  -0.025894   0.490501   0.000000   0.000000
    39  C    0.502773  -0.000002  -0.000022  -0.000046   0.000000   0.000000
    40  C   -0.000003   0.491282  -0.000003  -0.003123  -0.026050   0.000000
    41  C    0.000000   0.000000   0.504366  -0.030201   0.000000   0.000000
    42  C    0.000001  -0.000001   0.504049  -0.033977   0.000000   0.000002
    43  C    0.000000   0.502671   0.000000   0.000001  -0.031394   0.000000
    44  C    0.000000  -0.030316   0.000000   0.000000   0.502840   0.000000
    45  C   -0.000005  -0.004669   0.000028   0.000315  -0.000003  -0.010698
              31         32         33         34         35         36
     1  H   -0.028529   0.388845   0.001565   0.000000  -0.000081   0.000001
     2  H    0.000000   0.000000   0.000000  -0.025959   0.000000   0.000000
     3  H    0.000002   0.001227  -0.000021   0.000000   0.387091  -0.028800
     4  H    0.000000   0.000000   0.000000   0.000000   0.000000   0.000000
     5  H    0.000000  -0.000003   0.000000  -0.028990   0.000000   0.000000
     6  H    0.001584   0.000051  -0.027337   0.000000   0.000000   0.000000
     7  H   -0.000005   0.000103  -0.000001   0.000015   0.000000   0.000000
     8  H    0.000000   0.000000   0.000000   0.000000   0.000045   0.001560
     9  H    0.387048  -0.025797  -0.026947   0.000000   0.000000   0.000000
    10  H    0.000000   0.000000   0.000000   0.001594   0.000000   0.000000
    11  H    0.000000   0.000001   0.000000   0.000000  -0.025636   0.387595
    12  H    0.000000   0.000000   0.000000   0.000000   0.000000   0.000000
    13  H    0.000000   0.000000   0.000000   0.387465   0.000000   0.000000
    14  H    0.000040   0.001819   0.001520  -0.000002   0.000011   0.000000
    15  H    0.000000   0.000004   0.000000   0.000000  -0.000051   0.000001
    16  H    0.000000   0.000000   0.000000   0.000000   0.001535  -0.026738
    17  H    0.000000   0.000001   0.000000   0.000000   0.000000   0.000000
    18  H    0.000000   0.000000   0.000000   0.000002   0.001832   0.000048
    19  H   -0.026255   0.001530   0.388903   0.000000   0.000000   0.000000
    20  H    0.000000  -0.000004   0.000000   0.000049  -0.000072   0.000009
    21  B    0.001156  -0.024252   0.000030   0.001016  -0.021447   0.001056
    22  C    0.000000   0.000000   0.000000   0.000000  -0.013352  -0.031202
    23  C   -0.026184   0.487682  -0.010772  -0.000004  -0.004898   0.000039
    24  C    0.000000   0.000003   0.000000   0.000000  -0.033857  -0.013679
    25  C   -0.031303  -0.013804   0.505559   0.000000   0.000003   0.000000
    26  C    0.000000  -0.000061   0.000000   0.000000  -0.000027   0.000001
    27  C    0.000000   0.000000   0.000000  -0.031767   0.000000   0.000000
    28  C    0.000000   0.000001   0.000000   0.503775  -0.000002   0.000000
    29  C    0.000000  -0.000010   0.000000   0.000000   0.000000   0.000000
    30  C    0.000000   0.000000   0.000000   0.000000  -0.030482   0.505498
    31  C    4.835750   0.505110   0.503517   0.000000  -0.000044   0.000000
    32  C    0.505110   4.849792  -0.030866   0.000000  -0.001349   0.000003
    33  C    0.503517  -0.030866   4.838783   0.000000   0.000003   0.000000
    34  C    0.000000   0.000000   0.000000   4.836669   0.000000   0.000000
    35  C   -0.000044  -0.001349   0.000003   0.000000   4.850507   0.502006
    36  C    0.000000   0.000003   0.000000   0.000000   0.502006   4.837247
    37  C   -0.000007  -0.000368   0.000000   0.000004  -0.000002   0.000000
    38  C   -0.000003   0.000350   0.000000  -0.025990   0.000236  -0.000004
    39  C   -0.013231  -0.033587  -0.030122   0.000001  -0.000095   0.000000
    40  C    0.000024  -0.003857   0.000000   0.000022   0.000016  -0.000004
    41  C    0.000000   0.000000   0.000000   0.504208   0.000000   0.000000
    42  C    0.000000   0.000001   0.000000  -0.013833  -0.000059   0.000000
    43  C    0.000000  -0.000001   0.000000   0.000000   0.000000   0.000000
    44  C    0.000000   0.000001   0.000000   0.000000   0.000000   0.000000
    45  C   -0.000002  -0.001094   0.000001  -0.000003   0.492645  -0.026250
              37         38         39         40         41         42
     1  H    0.000085   0.000019   0.001829   0.000723   0.000000   0.000000
     2  H    0.000000   0.000022   0.000000   0.000000   0.388282   0.001510
     3  H   -0.000001   0.000021  -0.000048   0.000042   0.000000   0.000003
     4  H    0.001495   0.000000   0.000000   0.000023   0.000000   0.000000
     5  H    0.001420  -0.027416   0.000011  -0.000230   0.001550   0.001816
     6  H    0.000000   0.000000  -0.025907   0.000000   0.000000   0.000001
     7  H    0.388075   0.000172  -0.000032  -0.027384   0.000000  -0.000007
     8  H    0.000000   0.000000   0.000000   0.000000   0.000000   0.000001
     9  H    0.000001   0.000000   0.000044   0.000000   0.000000   0.000000
    10  H    0.000000   0.001414   0.000000   0.000000  -0.027301  -0.025781
    11  H    0.000000   0.000000   0.000000   0.000000   0.000000   0.000000
    12  H    0.000048   0.000000   0.000000   0.001441   0.000000   0.000000
    13  H    0.000003   0.001429   0.000000   0.000000  -0.027140   0.000051
    14  H    0.000002   0.000529   0.387284   0.000017  -0.000014   0.001022
    15  H    0.001795   0.000040   0.000000  -0.027675   0.000000  -0.000001
    16  H    0.000000   0.000000   0.000000   0.000000   0.000000   0.000000
    17  H   -0.026044   0.000000   0.000000   0.001418   0.000000   0.000000
    18  H   -0.000010   0.000359   0.000000   0.000175  -0.000001   0.000069
    19  H    0.000000   0.000000   0.001508   0.000000   0.000000   0.000000
    20  H    0.000000  -0.028123  -0.000059   0.000018   0.001564   0.388532
    21  B   -0.022676   0.358726  -0.021606   0.361892   0.000026  -0.023268
    22  C    0.000000   0.000012   0.000000   0.000001   0.000000  -0.000033
    23  C   -0.002453  -0.011894   0.492169  -0.012957   0.000001  -0.000675
    24  C    0.000001  -0.002921   0.000000  -0.001058   0.000000  -0.000982
    25  C    0.000000   0.000029   0.502773  -0.000003   0.000000   0.000001
    26  C   -0.033506  -0.000031  -0.000002   0.491282   0.000000  -0.000001
    27  C    0.000000  -0.025894  -0.000022  -0.000003   0.504366   0.504049
    28  C   -0.002292   0.490501  -0.000046  -0.003123  -0.030201  -0.033977
    29  C    0.504630   0.000000   0.000000  -0.026050   0.000000   0.000000
    30  C    0.000000   0.000000   0.000000   0.000000   0.000000   0.000002
    31  C   -0.000007  -0.000003  -0.013231   0.000024   0.000000   0.000000
    32  C   -0.000368   0.000350  -0.033587  -0.003857   0.000000   0.000001
    33  C    0.000000   0.000000  -0.030122   0.000000   0.000000   0.000000
    34  C    0.000004  -0.025990   0.000001   0.000022   0.504208  -0.013833
    35  C   -0.000002   0.000236  -0.000095   0.000016   0.000000  -0.000059
    36  C    0.000000  -0.000004   0.000000  -0.000004   0.000000   0.000000
    37  C    4.850203  -0.001237  -0.000003   0.485853   0.000000   0.000003
    38  C   -0.001237   4.888038  -0.003986  -0.011355  -0.010388   0.487968
    39  C   -0.000003  -0.003986   4.847953   0.000310   0.000002  -0.000829
    40  C    0.485853  -0.011355   0.000310   4.886041   0.000000   0.000302
    41  C    0.000000  -0.010388   0.000002   0.000000   4.838901  -0.030483
    42  C    0.000003   0.487968  -0.000829   0.000302  -0.030483   4.851332
    43  C   -0.013490  -0.000004   0.000000  -0.026164   0.000000   0.000000
    44  C   -0.030276   0.000001   0.000000  -0.010458   0.000000   0.000000
    45  C    0.000345  -0.012768  -0.000296  -0.012145   0.000000  -0.004265
              43         44         45
     1  H    0.000006  -0.000002   0.000128
     2  H    0.000000   0.000000   0.000000
     3  H    0.000000   0.000000  -0.027608
     4  H   -0.026058   0.388268   0.000000
     5  H    0.000000  -0.000008   0.000012
     6  H    0.000000   0.000000   0.000000
     7  H    0.000046   0.001560   0.000012
     8  H    0.000000   0.000000   0.001413
     9  H    0.000000   0.000000   0.000000
    10  H    0.000000   0.000000   0.000000
    11  H    0.000000   0.000000   0.001419
    12  H    0.387411  -0.026897   0.000000
    13  H    0.000000   0.000000   0.000000
    14  H    0.000000   0.000000   0.000053
    15  H   -0.028877   0.001548   0.000460
    16  H    0.000000   0.000000   0.000026
    17  H    0.001563  -0.026888   0.000000
    18  H    0.000003   0.000000  -0.028502
    19  H    0.000000   0.000000   0.000000
    20  H    0.000000   0.000000   0.000635
    21  B    0.001081   0.000028   0.361606
    22  C    0.000000   0.000000  -0.025995
    23  C   -0.000003   0.000000  -0.012710
    24  C    0.000003   0.000000   0.486074
    25  C    0.000000   0.000000  -0.000005
    26  C    0.502671  -0.030316  -0.004669
    27  C    0.000000   0.000000   0.000028
    28  C    0.000001   0.000000   0.000315
    29  C   -0.031394   0.502840  -0.000003
    30  C    0.000000   0.000000  -0.010698
    31  C    0.000000   0.000000  -0.000002
    32  C   -0.000001   0.000001  -0.001094
    33  C    0.000000   0.000000   0.000001
    34  C    0.000000   0.000000  -0.000003
    35  C    0.000000   0.000000   0.492645
    36  C    0.000000   0.000000  -0.026250
    37  C   -0.013490  -0.030276   0.000345
    38  C   -0.000004   0.000001  -0.012768
    39  C    0.000000   0.000000  -0.000296
    40  C   -0.026164  -0.010458  -0.012145
    41  C    0.000000   0.000000   0.000000
    42  C    0.000000   0.000000  -0.004265
    43  C    4.836446   0.504982   0.000036
    44  C    0.504982   4.838762   0.000000
    45  C    0.000036   0.000000   4.890031
 Mulliken charges:
               1
     1  H    0.072696
     2  H    0.055955
     3  H    0.074272
     4  H    0.056259
     5  H    0.072537
     6  H    0.058057
     7  H    0.070753
     8  H    0.058532
     9  H    0.058357
    10  H    0.058271
    11  H    0.058307
    12  H    0.058239
    13  H    0.057716
    14  H    0.073363
    15  H    0.073823
    16  H    0.056169
    17  H    0.058038
    18  H    0.071513
    19  H    0.056448
    20  H    0.073601
    21  B    0.141421
    22  C   -0.109150
    23  C   -0.066357
    24  C   -0.100476
    25  C   -0.107772
    26  C   -0.104789
    27  C   -0.108754
    28  C   -0.104369
    29  C   -0.108304
    30  C   -0.113188
    31  C   -0.108669
    32  C   -0.101472
    33  C   -0.113816
    34  C   -0.108273
    35  C   -0.104478
    36  C   -0.108388
    37  C   -0.101598
    38  C   -0.067849
    39  C   -0.104014
    40  C   -0.067136
    41  C   -0.113372
    42  C   -0.102467
    43  C   -0.108261
    44  C   -0.113145
    45  C   -0.068227
 Sum of Mulliken charges =  -1.00000
 Mulliken charges with hydrogens summed into heavy atoms:
               1
    21  B    0.141421
    22  C   -0.050618
    23  C   -0.066357
    24  C   -0.028963
    25  C   -0.049715
    26  C   -0.030966
    27  C   -0.050483
    28  C   -0.031831
    29  C   -0.050267
    30  C   -0.057019
    31  C   -0.050313
    32  C   -0.028777
    33  C   -0.057368
    34  C   -0.050557
    35  C   -0.030206
    36  C   -0.050081
    37  C   -0.030845
    38  C   -0.067849
    39  C   -0.030651
    40  C   -0.067136
    41  C   -0.057417
    42  C   -0.028866
    43  C   -0.050022
    44  C   -0.056886
    45  C   -0.068227
 Electronic spatial extent (au):  <R**2>=         520985.4506
 Charge=             -1.0000 electrons
 Dipole moment (field-independent basis, Debye):
    X=            -23.3672    Y=            -74.5638    Z=           -115.6940  Tot=            139.6098
 Quadrupole moment (field-independent basis, Debye-Ang):
   XX=           -266.2984   YY=          -1309.3721   ZZ=          -2938.4958
   XY=           -362.7831   XZ=           -562.9612   YZ=          -1796.5750
 Traceless Quadrupole moment (field-independent basis, Debye-Ang):
   XX=           1238.4237   YY=            195.3500   ZZ=          -1433.7737
   XY=           -362.7831   XZ=           -562.9612   YZ=          -1796.5750
 Octapole moment (field-independent basis, Debye-Ang**2):
  XXX=          -2794.2581  YYY=         -25047.2991  ZZZ=         -78106.5529  XYY=          -6360.3424
  XXY=          -4153.1749  XXZ=          -6412.4597  XZZ=         -14294.0177  YZZ=         -45620.4013
  YYZ=         -31552.8732  XYZ=          -8742.4887
 Hexadecapole moment (field-independent basis, Debye-Ang**3):
 XXXX=         -28063.6026 YYYY=        -502194.7414 ZZZZ=       -2150172.9029 XXXY=         -43669.7912
 XXXZ=         -67291.2475 YYYX=        -121400.5974 YYYZ=        -603573.6408 ZZZX=        -379703.7591
 ZZZY=       -1211842.8519 XXYY=         -69406.6402 XXZZ=        -159083.5897 YYZZ=        -797376.0049
 XXYZ=        -100034.0927 YYXZ=        -153284.1598 ZZXY=        -221916.4542
 N-N= 1.972522778788D+03 E-N=-6.147339411755D+03  KE= 9.254254264499D+02
 No NMR shielding tensors so no spin-rotation constants.
 Leave Link  601 at Fri Aug 13 11:24:51 2021, MaxMem=  1073741824 cpu:         0.6
 (Enter /opt/apps/apps/binapps/gaussian/g09d01_em64t/g09/l602.exe)
 FitSet:  NAtFit=    45 NAtPot=    45 NAtFrz=     0 MDM=   184 TotChg=  -1.00000
 Breneman (CHELPG) radii used.
 Generate Potential Derived Charges using the Breneman model, NDens= 1.
 Grid spacing= 0.300 Box extension= 2.800
 NStep X,Y,Z=   52     50     52   Total possible points=      135200
 Number of Points to Fit=   25835

 **********************************************************************

            Electrostatic Properties Using The SCF Density

 **********************************************************************

       Atomic Center    1 is at   2.148667 15.323086 23.498466
       Atomic Center    2 is at   9.877462 18.007006 23.847978
       Atomic Center    3 is at   2.868157 15.504921 26.166672
       Atomic Center    4 is at   4.130517 12.111571 19.657118
       Atomic Center    5 is at   6.603424 16.098667 21.815590
       Atomic Center    6 is at   3.154173 20.005030 24.741997
       Atomic Center    7 is at   4.471645 16.070461 21.304170
       Atomic Center    8 is at   6.574200 12.427947 27.353866
       Atomic Center    9 is at   0.321207 16.995759 23.547343
       Atomic Center   10 is at   8.746728 17.584273 26.027005
       Atomic Center   11 is at   2.842567 14.327955 28.338666
       Atomic Center   12 is at   4.264373 11.164640 21.968201
       Atomic Center   13 is at   8.751445 17.284182 21.737484
       Atomic Center   14 is at   4.976066 18.331168 24.637632
       Atomic Center   15 is at   4.581692 12.645968 23.900251
       Atomic Center   16 is at   4.710700 12.836184 28.977222
       Atomic Center   17 is at   4.230286 14.590556 19.355710
       Atomic Center   18 is at   6.579073 13.603369 25.167485
       Atomic Center   19 is at   0.821971 19.359551 24.169075
       Atomic Center   20 is at   6.545121 16.470089 26.089841
       Atomic Center   21 is at   4.859588 15.500164 24.059809
       Atomic Center   22 is at   5.753463 13.101221 27.091368
       Atomic Center   23 is at   3.717543 16.682894 24.047993
       Atomic Center   24 is at   5.751390 13.766472 25.863147
       Atomic Center   25 is at   2.930422 18.975497 24.454968
       Atomic Center   26 is at   4.504214 13.091889 22.907900
       Atomic Center   27 is at   8.266528 17.274633 25.096204
       Atomic Center   28 is at   7.045186 16.436643 22.754425
       Atomic Center   29 is at   4.320094 14.156124 20.354207
       Atomic Center   30 is at   4.710805 13.314193 27.998205
       Atomic Center   31 is at   1.343725 17.293775 23.793690
       Atomic Center   32 is at   2.377053 16.355934 23.759617
       Atomic Center   33 is at   1.618173 18.617912 24.142451
       Atomic Center   34 is at   8.277989 17.095060 22.702663
       Atomic Center   35 is at   3.687082 14.823374 26.404554
       Atomic Center   36 is at   3.664684 14.163870 27.639219
       Atomic Center   37 is at   4.470453 14.990258 21.465319
       Atomic Center   38 is at   6.362917 16.185773 23.962246
       Atomic Center   39 is at   3.955699 18.024186 24.398760
       Atomic Center   40 is at   4.599148 14.492317 22.782953
       Atomic Center   41 is at   8.907895 17.507161 23.879052
       Atomic Center   42 is at   7.021671 16.639669 25.124615
       Atomic Center   43 is at   4.326221 12.243141 21.811015
       Atomic Center   44 is at   4.249903 12.768681 20.519532
       Atomic Center   45 is at   4.739816 14.673321 25.482004
   25835 points will be used for fitting atomic charges
 Fitting point charges and point dipoles to eletrostatic potential
 The dipole moment will be constrained to the correct value
 Charges from ESP fit, RMS=   0.00123 RRMS=   0.01211:
 ESP charges         Point Dipoles (au):
               1          2          3          4
     1  H   -0.051582  -0.065614  -0.053741  -0.012428
     2  H    0.035108   0.037676   0.020878  -0.000416
     3  H   -0.000224  -0.045388  -0.024328   0.075392
     4  H    0.058587  -0.003675  -0.016595  -0.023615
     5  H    0.011658   0.041427   0.033472  -0.037977
     6  H    0.030884   0.010687   0.051211   0.010700
     7  H    0.073734   0.034914   0.000308  -0.006918
     8  H    0.031171   0.044680  -0.030002   0.005257
     9  H    0.024407  -0.051179  -0.023637  -0.019488
    10  H    0.036512   0.021488   0.011448   0.044249
    11  H   -0.000653  -0.051415   0.008618   0.052320
    12  H    0.000682  -0.005891  -0.074990   0.004124
    13  H    0.058093   0.013673   0.005806  -0.027419
    14  H    0.034021  -0.029008   0.050841   0.017954
    15  H    0.059265  -0.003844  -0.064371  -0.086980
    16  H    0.026461  -0.003545  -0.016608   0.048971
    17  H   -0.013162  -0.005364   0.041663  -0.070634
    18  H   -0.014360   0.047496  -0.033345  -0.029779
    19  H    0.039099  -0.034711   0.023416   0.001673
    20  H   -0.036928   0.031834   0.035927   0.069845
    21  B    0.195292   0.000051  -0.028768  -0.042364
    22  C   -0.149179  -0.089959  -0.017547   0.164582
    23  C    0.037265  -0.122038   0.120297   0.087308
    24  C   -0.013467   0.058356  -0.172267   0.167651
    25  C   -0.097003  -0.095861  -0.022557  -0.008839
    26  C   -0.096629   0.009192   0.148668  -0.014668
    27  C   -0.070787   0.035738   0.008036  -0.100805
    28  C   -0.104601   0.071154   0.021430  -0.052725
    29  C   -0.128579  -0.043535  -0.202519  -0.183220
    30  C   -0.137565  -0.006955  -0.007877   0.003274
    31  C   -0.059640  -0.008537   0.161665   0.043499
    32  C    0.052286  -0.029052  -0.071424   0.022344
    33  C   -0.183272   0.026718   0.051620   0.004816
    34  C   -0.108378   0.027532   0.021707   0.125619
    35  C   -0.018852   0.058110  -0.002698  -0.027738
    36  C   -0.060165  -0.006924  -0.022244   0.053158
    37  C   -0.068117   0.003747  -0.180554  -0.329806
    38  C   -0.026511   0.143202   0.112844  -0.068282
    39  C   -0.117298  -0.069277   0.092664  -0.011330
    40  C    0.018285  -0.076601   0.143300  -0.264955
    41  C   -0.155871   0.013028   0.007140  -0.002438
    42  C    0.036025  -0.106422  -0.018236   0.000385
    43  C   -0.036798  -0.005925   0.000042   0.005258
    44  C   -0.172405   0.015209  -0.030760   0.089796
    45  C    0.063193   0.253015  -0.182544   0.036446
       Tot  -1.000000   0.038209  -0.124613  -0.288204
 ESP charges with hydrogens summed into heavy atoms:
               1
    21  B    0.195292
    22  C   -0.118009
    23  C    0.037265
    24  C   -0.027827
    25  C   -0.066119
    26  C   -0.037363
    27  C   -0.034276
    28  C   -0.092943
    29  C   -0.141741
    30  C   -0.111104
    31  C   -0.035233
    32  C    0.000705
    33  C   -0.144174
    34  C   -0.050285
    35  C   -0.019076
    36  C   -0.060818
    37  C    0.005617
    38  C   -0.026511
    39  C   -0.083277
    40  C    0.018285
    41  C   -0.120763
    42  C   -0.000903
    43  C   -0.036117
    44  C   -0.113818
    45  C    0.063193
 Charge=  -1.00000 Dipole=   -23.4643   -74.2470  -114.9615 Tot=   138.8500
 -----------------------------------------------------------------

              Electrostatic Properties (Atomic Units)

 -----------------------------------------------------------------
    Center     Electric         -------- Electric Field --------
               Potential          X             Y             Z
 -----------------------------------------------------------------
    1 Atom     -1.293368
    2 Atom     -1.264508
    3 Atom     -1.293853
    4 Atom     -1.263697
    5 Atom     -1.292902
    6 Atom     -1.270084
    7 Atom     -1.290646
    8 Atom     -1.268631
    9 Atom     -1.269367
   10 Atom     -1.270049
   11 Atom     -1.269380
   12 Atom     -1.269295
   13 Atom     -1.270092
   14 Atom     -1.293099
   15 Atom     -1.293131
   16 Atom     -1.264325
   17 Atom     -1.268672
   18 Atom     -1.293190
   19 Atom     -1.264240
   20 Atom     -1.294024
   21 Atom    -11.579877
   22 Atom    -14.699867
   23 Atom    -14.747381
   24 Atom    -14.716261
   25 Atom    -14.700897
   26 Atom    -14.718641
   27 Atom    -14.701354
   28 Atom    -14.718558
   29 Atom    -14.699973
   30 Atom    -14.698717
   31 Atom    -14.700664
   32 Atom    -14.717693
   33 Atom    -14.699022
   34 Atom    -14.701320
   35 Atom    -14.718422
   36 Atom    -14.701099
   37 Atom    -14.715387
   38 Atom    -14.746602
   39 Atom    -14.717758
   40 Atom    -14.745873
   41 Atom    -14.699135
   42 Atom    -14.718372
   43 Atom    -14.700597
   44 Atom    -14.698095
   45 Atom    -14.747495
 -----------------------------------------------------------------
 Leave Link  602 at Fri Aug 13 11:24:53 2021, MaxMem=  1073741824 cpu:         6.4
 (Enter /opt/apps/apps/binapps/gaussian/g09d01_em64t/g09/l9999.exe)
 1\1\GINC-NODE401\SP\RPBEPBE\STO-3G\C24H20B1(1-)\MBDXQJK2\13-Aug-2021\0
 \\#p pbepbe empiricaldispersion=gd3 int=grid=ultrafine pop=(CHELPG, At
 omDipole) scf=(xqc,maxcycle=500) NoSymm\\DFT PBEPBE\\-1,1\H,0,2.148667
 1,15.3230857,23.4984658\H,0,9.8774619,18.0070059,23.8479783\H,0,2.8681
 57,15.5049213,26.1666715\H,0,4.130517,12.1115714,19.6571175\H,0,6.6034
 243,16.0986673,21.8155896\H,0,3.1541732,20.0050299,24.7419967\H,0,4.47
 16447,16.0704608,21.3041701\H,0,6.5741996,12.4279465,27.3538663\H,0,0.
 3212066,16.9957593,23.5473427\H,0,8.7467282,17.5842726,26.0270052\H,0,
 2.8425668,14.3279553,28.338666\H,0,4.2643727,11.1646398,21.9682012\H,0
 ,8.7514445,17.2841821,21.7374844\H,0,4.9760658,18.3311676,24.6376316\H
 ,0,4.5816922,12.6459675,23.9002507\H,0,4.7106999,12.8361843,28.9772223
 \H,0,4.2302856,14.5905563,19.3557103\H,0,6.5790725,13.6033693,25.16748
 47\H,0,0.8219712,19.3595511,24.1690751\H,0,6.5451214,16.4700893,26.089
 8405\B,0,4.8595877,15.500164,24.059809\C,0,5.753463,13.1012206,27.0913
 684\C,0,3.7175426,16.6828938,24.0479932\C,0,5.75139,13.7664722,25.8631
 474\C,0,2.9304215,18.9754972,24.4549679\C,0,4.5042139,13.0918894,22.90
 79002\C,0,8.2665284,17.2746325,25.0962037\C,0,7.0451864,16.4366426,22.
 7544253\C,0,4.3200943,14.1561239,20.3542069\C,0,4.7108045,13.3141931,2
 7.9982048\C,0,1.3437247,17.2937749,23.7936896\C,0,2.3770529,16.355934,
 23.7596168\C,0,1.6181732,18.6179118,24.1424514\C,0,8.2779892,17.095060
 2,22.7026627\C,0,3.6870816,14.8233742,26.4045542\C,0,3.6646836,14.1638
 698,27.6392188\C,0,4.4704528,14.9902575,21.4653188\C,0,6.3629169,16.18
 5773,23.9622462\C,0,3.9556988,18.0241861,24.3987601\C,0,4.5991481,14.4
 923169,22.7829526\C,0,8.9078948,17.5071607,23.8790517\C,0,7.0216709,16
 .6396693,25.1246151\C,0,4.3262205,12.243141,21.811015\C,0,4.2499034,12
 .7686809,20.5195316\C,0,4.7398159,14.6733208,25.4820037\\Version=ES64L
 -G09RevD.01\HF=-938.6837299\RMSD=2.710e-09\Dipole=-0.011858,0.0086324,
 0.0284237\Quadrupole=920.7377212,145.2379253,-1065.9756465,-269.720362
 5,-418.5479,-1335.7095608\PG=C01 [X(C24H20B1)]\\@


 THE NUMBERS ARE MEANINGLESS, BUT THE TRENDS ARE IMPORTANT.
     -- LARRY BURGGRAF
 Job cpu time:       0 days  0 hours  3 minutes  5.1 seconds.
 File lengths (MBytes):  RWF=     10 Int=      0 D2E=      0 Chk=      2 Scr=      1
 Normal termination of Gaussian 09 at Fri Aug 13 11:24:53 2021.
